69
* (null), Energy   -1000.0000000
H     2.565453   -2.546653   -2.751380    1.522125   -0.920225    0.892526
O     2.396240   -2.079956   -1.931457   -0.106292    0.060521    0.003083
C     1.493029   -2.831057   -1.135293   -0.032922   -0.023654   -0.015688
H     0.853242   -3.465951   -1.774703   -0.074958    0.031251   -0.043171
H     2.051415   -3.492306   -0.448228   -0.064470   -0.062442   -0.017854
C     0.572650   -1.946576   -0.294920    0.004726   -0.000683   -0.011040
H    -0.198307   -2.620602    0.110805   -0.001591    0.009693   -0.009422
O     1.222176   -1.427335    0.845689    0.017372   -0.008397   -0.015498
C     2.052738   -0.306575    0.650764   -0.000392    0.008298   -0.000859
H     2.917512   -0.551001    0.003530    0.007012    0.019854    0.006378
H     2.423601   -0.022632    1.644710   -0.016287    0.008238    0.005104
C     1.256902    0.846919    0.040128   -0.003801    0.001701   -0.008801
H     0.470204    1.134320    0.748981   -0.010732    0.001617   -0.016639
C     0.614600    0.412648   -1.270845    0.011069   -0.007068   -0.013734
H     1.404222    0.201459   -2.008579    0.010176   -0.030020   -0.009249
H    -0.051202    1.201171   -1.649301    0.019189   -0.007026   -0.027595
N     2.109931    2.021642   -0.137705   -0.004574    0.003709   -0.003567
C     2.509222    2.641792   -1.296393   -0.004809    0.004225   -0.003124
H     2.256950    2.232685   -2.272296   -0.006291    0.003474   -0.002636
N     3.180615    3.748140   -1.109117   -0.003262    0.003660   -0.002068
C     3.232640    3.875869    0.261255   -0.002454    0.002052   -0.001940
C     3.702523    4.895414    1.114252   -0.001469    0.000802   -0.001280
N     4.278087    6.030198    0.634396   -0.001660    0.001728   -0.000874
H     4.068279    6.249850   -0.331590   -0.006019    0.002714    0.000192
H     4.258199    6.815054    1.274074   -0.004905    0.001222   -0.000250
N     3.578295    4.733387    2.433989    0.000323   -0.000369   -0.001248
C     2.977021    3.628945    2.897681    0.000268   -0.000738   -0.001947
H     2.904283    3.551300    3.988684    0.001520   -0.002030   -0.001939
N     2.442421    2.638758    2.200165   -0.001179    0.000514   -0.002453
C     2.581098    2.811380    0.881799   -0.003394    0.001769   -0.002777
C    -0.185576   -0.888683   -1.128277    0.003028    0.000304   -0.012328
H    -0.288179   -1.305405   -2.145206    0.004640   -0.000566   -0.007884
O    -1.512908   -0.768617   -0.666875    0.005268    0.002451    0.001983
P    -2.222308    0.381218    0.292062    0.004576    0.001078   -0.002155
O    -3.631825   -0.067977    0.504537    0.003836    0.003146    0.001178
O    -1.823716    1.759542   -0.175763    0.002981    0.003457    0.003151
O    -1.366974    0.202913    1.702508    0.003701    0.000151    0.001256
C    -1.707438   -0.727900    2.703143    0.000201   -0.000060   -0.001420
H    -2.612782   -1.287539    2.410487   -0.001304    0.002886   -0.002825
H    -0.868118   -1.434606    2.820599   -0.002484   -0.003418   -0.000555
C    -1.960402   -0.048065    4.048023    0.001055   -0.001392   -0.000600
H    -2.298369   -0.835919    4.740582    0.001341   -0.001570   -0.000614
O    -0.786439    0.468730    4.643416    0.001802   -0.001809   -0.001047
C    -0.234461    1.603942    4.015838    0.001122   -0.000770   -0.000203
H     0.118999    1.371843    3.001323    0.000537    0.000558   -0.000670
H     0.638587    1.896556    4.615416    0.001111   -0.000976    0.000020
C    -1.240643    2.760084    3.981150    0.000800   -0.000993    0.001206
H    -1.367169    3.121743    5.009460    0.000732   -0.001891    0.001537
C    -2.599414    2.332717    3.421713    0.001025   -0.001085    0.000726
H    -2.564273    2.221171    2.331632    0.001381   -0.001518    0.000738
H    -3.350941    3.117475    3.624425    0.000813   -0.001238    0.000570
N    -0.675325    3.896375    3.233906    0.000583   -0.000171    0.002144
C    -0.069783    4.907447    3.954944    0.001107   -0.001228    0.002818
O    -0.011794    4.939342    5.171577    0.002345   -0.002596    0.002969
N     0.476559    5.910877    3.180085    0.000369   -0.000217    0.003721
H     0.970794    6.630237    3.696609    0.000714   -0.000828    0.004196
C     0.533483    5.998196    1.790439   -0.000572    0.001519    0.003675
O     1.098688    6.942744    1.260037   -0.000727    0.002423    0.004867
C    -0.117417    4.891493    1.103352   -0.000886    0.002374    0.002797
C    -0.162540    4.876942   -0.395326   -0.001538    0.003471    0.002765
H    -0.632864    3.947509   -0.747521    0.000052    0.002912    0.002146
H    -0.743146    5.732715   -0.774499   -0.003071    0.002901    0.003713
H     0.846707    4.964151   -0.824275   -0.001860    0.005220    0.002433
C    -0.656882    3.900771    1.852510   -0.000164    0.001220    0.001942
H    -1.119802    3.043234    1.347697    0.000323    0.001338    0.000797
C    -3.077432    1.003101    4.007337    0.001338   -0.001161    0.000626
H    -3.888319    0.615147    3.364369    0.000920   -0.000814    0.001051
O    -3.551736    1.153714    5.340766    0.002093   -0.001501    0.001236
H    -3.938880    2.027497    5.432699    0.002389   -0.001374    0.001321
69
* Frequency(6) -139.0520
H     2.738435   -2.651232   -2.649949    1.522125   -0.920225    0.892526
O     2.384160   -2.073079   -1.931106   -0.106292    0.060521    0.003083
C     1.489288   -2.833745   -1.137076   -0.032922   -0.023654   -0.015688
H     0.844723   -3.462400   -1.779609   -0.074958    0.031251   -0.043171
H     2.044088   -3.499402   -0.450257   -0.064470   -0.062442   -0.017854
C     0.573187   -1.946653   -0.296174    0.004726   -0.000683   -0.011040
H    -0.198488   -2.619501    0.109734   -0.001591    0.009693   -0.009422
O     1.224150   -1.428290    0.843928    0.017372   -0.008397   -0.015498
C     2.052694   -0.305632    0.650666   -0.000392    0.008298   -0.000859
H     2.918308   -0.548745    0.004255    0.007012    0.019854    0.006378
H     2.421750   -0.021696    1.645291   -0.016287    0.008238    0.005104
C     1.256470    0.847112    0.039128   -0.003801    0.001701   -0.008801
H     0.468984    1.134504    0.747090   -0.010732    0.001617   -0.016639
C     0.615858    0.411845   -1.272406    0.011069   -0.007068   -0.013734
H     1.405378    0.198047   -2.009630    0.010176   -0.030020   -0.009249
H    -0.049021    1.200373   -1.652437    0.019189   -0.007026   -0.027595
N     2.109411    2.022064   -0.138111   -0.004574    0.003709   -0.003567
C     2.508676    2.642272   -1.296748   -0.004809    0.004225   -0.003124
H     2.256235    2.233079   -2.272596   -0.006291    0.003474   -0.002636
N     3.180244    3.748556   -1.109352   -0.003262    0.003660   -0.002068
C     3.232361    3.876102    0.261035   -0.002454    0.002052   -0.001940
C     3.702356    4.895505    1.114107   -0.001469    0.000802   -0.001280
N     4.277899    6.030394    0.634297   -0.001660    0.001728   -0.000874
H     4.067595    6.250159   -0.331568   -0.006019    0.002714    0.000192
H     4.257641    6.815193    1.274046   -0.004905    0.001222   -0.000250
N     3.578331    4.733345    2.433847    0.000323   -0.000369   -0.001248
C     2.977052    3.628862    2.897460    0.000268   -0.000738   -0.001947
H     2.904456    3.551069    3.988464    0.001520   -0.002030   -0.001939
N     2.442287    2.638817    2.199886   -0.001179    0.000514   -0.002453
C     2.580712    2.811581    0.881483   -0.003394    0.001769   -0.002777
C    -0.185232   -0.888649   -1.129678    0.003028    0.000304   -0.012328
H    -0.287652   -1.305469   -2.146102    0.004640   -0.000566   -0.007884
O    -1.512309   -0.768338   -0.666650    0.005268    0.002451    0.001983
P    -2.221788    0.381341    0.291817    0.004576    0.001078   -0.002155
O    -3.631389   -0.067619    0.504671    0.003836    0.003146    0.001178
O    -1.823377    1.759935   -0.175405    0.002981    0.003457    0.003151
O    -1.366553    0.202930    1.702651    0.003701    0.000151    0.001256
C    -1.707416   -0.727907    2.702981    0.000201   -0.000060   -0.001420
H    -2.612931   -1.287211    2.410166   -0.001304    0.002886   -0.002825
H    -0.868400   -1.434995    2.820536   -0.002484   -0.003418   -0.000555
C    -1.960283   -0.048224    4.047955    0.001055   -0.001392   -0.000600
H    -2.298217   -0.836097    4.740513    0.001341   -0.001570   -0.000614
O    -0.786234    0.468524    4.643297    0.001802   -0.001809   -0.001047
C    -0.234333    1.603854    4.015815    0.001122   -0.000770   -0.000203
H     0.119060    1.371907    3.001247    0.000537    0.000558   -0.000670
H     0.638713    1.896445    4.615418    0.001111   -0.000976    0.000020
C    -1.240552    2.759971    3.981287    0.000800   -0.000993    0.001206
H    -1.367085    3.121528    5.009635    0.000732   -0.001891    0.001537
C    -2.599297    2.332593    3.421796    0.001025   -0.001085    0.000726
H    -2.564116    2.220999    2.331716    0.001381   -0.001518    0.000738
H    -3.350848    3.117334    3.624490    0.000813   -0.001238    0.000570
N    -0.675259    3.896355    3.234150    0.000583   -0.000171    0.002144
C    -0.069658    4.907307    3.955264    0.001107   -0.001228    0.002818
O    -0.011527    4.939047    5.171915    0.002345   -0.002596    0.002969
N     0.476601    5.910852    3.180508    0.000369   -0.000217    0.003721
H     0.970875    6.630143    3.697086    0.000714   -0.000828    0.004196
C     0.533418    5.998368    1.790857   -0.000572    0.001519    0.003675
O     1.098605    6.943020    1.260590   -0.000727    0.002423    0.004867
C    -0.117518    4.891763    1.103670   -0.000886    0.002374    0.002797
C    -0.162715    4.877336   -0.395012   -0.001538    0.003471    0.002765
H    -0.632858    3.947840   -0.747278    0.000052    0.002912    0.002146
H    -0.743495    5.733045   -0.774077   -0.003071    0.002901    0.003713
H     0.846495    4.964744   -0.823998   -0.001860    0.005220    0.002433
C    -0.656900    3.900910    1.852731   -0.000164    0.001220    0.001942
H    -1.119765    3.043386    1.347788    0.000323    0.001338    0.000797
C    -3.077280    1.002969    4.007408    0.001338   -0.001161    0.000626
H    -3.888214    0.615054    3.364488    0.000920   -0.000814    0.001051
O    -3.551498    1.153543    5.340906    0.002093   -0.001501    0.001236
H    -3.938608    2.027341    5.432849    0.002389   -0.001374    0.001321
69
* Frequency(6) -139.0520
H     2.892671   -2.744478   -2.559510    1.522125   -0.920225    0.892526
O     2.373390   -2.066946   -1.930794   -0.106292    0.060521    0.003083
C     1.485952   -2.836142   -1.138665   -0.032922   -0.023654   -0.015688
H     0.837128   -3.459233   -1.783983   -0.074958    0.031251   -0.043171
H     2.037555   -3.505729   -0.452066   -0.064470   -0.062442   -0.017854
C     0.573666   -1.946722   -0.297293    0.004726   -0.000683   -0.011040
H    -0.198649   -2.618519    0.108779   -0.001591    0.009693   -0.009422
O     1.225911   -1.429141    0.842357    0.017372   -0.008397   -0.015498
C     2.052654   -0.304791    0.650579   -0.000392    0.008298   -0.000859
H     2.919019   -0.546733    0.004902    0.007012    0.019854    0.006378
H     2.420100   -0.020861    1.645808   -0.016287    0.008238    0.005104
C     1.256085    0.847285    0.038236   -0.003801    0.001701   -0.008801
H     0.467897    1.134668    0.745404   -0.010732    0.001617   -0.016639
C     0.616979    0.411129   -1.273798    0.011069   -0.007068   -0.013734
H     1.406409    0.195005   -2.010567    0.010176   -0.030020   -0.009249
H    -0.047077    1.199661   -1.655233    0.019189   -0.007026   -0.027595
N     2.108947    2.022440   -0.138472   -0.004574    0.003709   -0.003567
C     2.508188    2.642700   -1.297065   -0.004809    0.004225   -0.003124
H     2.255598    2.233431   -2.272863   -0.006291    0.003474   -0.002636
N     3.179914    3.748927   -1.109561   -0.003262    0.003660   -0.002068
C     3.232112    3.876310    0.260838   -0.002454    0.002052   -0.001940
C     3.702207    4.895586    1.113977   -0.001469    0.000802   -0.001280
N     4.277731    6.030569    0.634208   -0.001660    0.001728   -0.000874
H     4.066985    6.250434   -0.331549   -0.006019    0.002714    0.000192
H     4.257144    6.815317    1.274020   -0.004905    0.001222   -0.000250
N     3.578364    4.733308    2.433721    0.000323   -0.000369   -0.001248
C     2.977079    3.628787    2.897263    0.000268   -0.000738   -0.001947
H     2.904610    3.550863    3.988267    0.001520   -0.002030   -0.001939
N     2.442167    2.638869    2.199638   -0.001179    0.000514   -0.002453
C     2.580368    2.811760    0.881202   -0.003394    0.001769   -0.002777
C    -0.184925   -0.888618   -1.130927    0.003028    0.000304   -0.012328
H    -0.287182   -1.305527   -2.146901    0.004640   -0.000566   -0.007884
O    -1.511775   -0.768090   -0.666449    0.005268    0.002451    0.001983
P    -2.221324    0.381450    0.291599    0.004576    0.001078   -0.002155
O    -3.631001   -0.067301    0.504791    0.003836    0.003146    0.001178
O    -1.823075    1.760285   -0.175086    0.002981    0.003457    0.003151
O    -1.366178    0.202946    1.702778    0.003701    0.000151    0.001256
C    -1.707395   -0.727913    2.702837    0.000201   -0.000060   -0.001420
H    -2.613063   -1.286918    2.409880   -0.001304    0.002886   -0.002825
H    -0.868652   -1.435341    2.820480   -0.002484   -0.003418   -0.000555
C    -1.960176   -0.048365    4.047894    0.001055   -0.001392   -0.000600
H    -2.298081   -0.836257    4.740450    0.001341   -0.001570   -0.000614
O    -0.786052    0.468341    4.643191    0.001802   -0.001809   -0.001047
C    -0.234220    1.603776    4.015795    0.001122   -0.000770   -0.000203
H     0.119114    1.371963    3.001179    0.000537    0.000558   -0.000670
H     0.638825    1.896346    4.615420    0.001111   -0.000976    0.000020
C    -1.240471    2.759871    3.981410    0.000800   -0.000993    0.001206
H    -1.367011    3.121337    5.009790    0.000732   -0.001891    0.001537
C    -2.599193    2.332483    3.421869    0.001025   -0.001085    0.000726
H    -2.563976    2.220845    2.331791    0.001381   -0.001518    0.000738
H    -3.350766    3.117208    3.624548    0.000813   -0.001238    0.000570
N    -0.675200    3.896338    3.234367    0.000583   -0.000171    0.002144
C    -0.069545    4.907183    3.955549    0.001107   -0.001228    0.002818
O    -0.011289    4.938784    5.172216    0.002345   -0.002596    0.002969
N     0.476639    5.910830    3.180885    0.000369   -0.000217    0.003721
H     0.970947    6.630059    3.697511    0.000714   -0.000828    0.004196
C     0.533360    5.998522    1.791229   -0.000572    0.001519    0.003675
O     1.098531    6.943265    1.261084   -0.000727    0.002423    0.004867
C    -0.117608    4.892003    1.103954   -0.000886    0.002374    0.002797
C    -0.162870    4.877688   -0.394732   -0.001538    0.003471    0.002765
H    -0.632852    3.948135   -0.747060    0.000052    0.002912    0.002146
H    -0.743806    5.733339   -0.773701   -0.003071    0.002901    0.003713
H     0.846307    4.965273   -0.823752   -0.001860    0.005220    0.002433
C    -0.656917    3.901033    1.852928   -0.000164    0.001220    0.001942
H    -1.119732    3.043522    1.347869    0.000323    0.001338    0.000797
C    -3.077144    1.002851    4.007472    0.001338   -0.001161    0.000626
H    -3.888121    0.614972    3.364595    0.000920   -0.000814    0.001051
O    -3.551286    1.153391    5.341031    0.002093   -0.001501    0.001236
H    -3.938366    2.027202    5.432983    0.002389   -0.001374    0.001321
69
* Frequency(6) -139.0520
H     3.011449   -2.816286   -2.489863    1.522125   -0.920225    0.892526
O     2.365096   -2.062223   -1.930553   -0.106292    0.060521    0.003083
C     1.483383   -2.837988   -1.139890   -0.032922   -0.023654   -0.015688
H     0.831278   -3.456794   -1.787352   -0.074958    0.031251   -0.043171
H     2.032524   -3.510602   -0.453459   -0.064470   -0.062442   -0.017854
C     0.574035   -1.946776   -0.298155    0.004726   -0.000683   -0.011040
H    -0.198773   -2.617762    0.108044   -0.001591    0.009693   -0.009422
O     1.227266   -1.429796    0.841148    0.017372   -0.008397   -0.015498
C     2.052623   -0.304144    0.650512   -0.000392    0.008298   -0.000859
H     2.919566   -0.545184    0.005399    0.007012    0.019854    0.006378
H     2.418829   -0.020218    1.646206   -0.016287    0.008238    0.005104
C     1.255789    0.847417    0.037550   -0.003801    0.001701   -0.008801
H     0.467059    1.134794    0.744106   -0.010732    0.001617   -0.016639
C     0.617843    0.410578   -1.274870    0.011069   -0.007068   -0.013734
H     1.407203    0.192663   -2.011289    0.010176   -0.030020   -0.009249
H    -0.045580    1.199113   -1.657386    0.019189   -0.007026   -0.027595
N     2.108590    2.022729   -0.138750   -0.004574    0.003709   -0.003567
C     2.507813    2.643030   -1.297308   -0.004809    0.004225   -0.003124
H     2.255107    2.233702   -2.273068   -0.006291    0.003474   -0.002636
N     3.179659    3.749213   -1.109723   -0.003262    0.003660   -0.002068
C     3.231920    3.876470    0.260687   -0.002454    0.002052   -0.001940
C     3.702093    4.895648    1.113877   -0.001469    0.000802   -0.001280
N     4.277601    6.030704    0.634140   -0.001660    0.001728   -0.000874
H     4.066515    6.250646   -0.331534   -0.006019    0.002714    0.000192
H     4.256761    6.815412    1.274001   -0.004905    0.001222   -0.000250
N     3.578389    4.733279    2.433623    0.000323   -0.000369   -0.001248
C     2.977100    3.628729    2.897111    0.000268   -0.000738   -0.001947
H     2.904729    3.550705    3.988116    0.001520   -0.002030   -0.001939
N     2.442075    2.638909    2.199446   -0.001179    0.000514   -0.002453
C     2.580103    2.811898    0.880985   -0.003394    0.001769   -0.002777
C    -0.184689   -0.888594   -1.131889    0.003028    0.000304   -0.012328
H    -0.286820   -1.305571   -2.147517    0.004640   -0.000566   -0.007884
O    -1.511364   -0.767899   -0.666294    0.005268    0.002451    0.001983
P    -2.220967    0.381534    0.291431    0.004576    0.001078   -0.002155
O    -3.630701   -0.067055    0.504883    0.003836    0.003146    0.001178
O    -1.822843    1.760555   -0.174840    0.002981    0.003457    0.003151
O    -1.365889    0.202957    1.702876    0.003701    0.000151    0.001256
C    -1.707380   -0.727918    2.702727    0.000201   -0.000060   -0.001420
H    -2.613164   -1.286693    2.409659   -0.001304    0.002886   -0.002825
H    -0.868846   -1.435608    2.820437   -0.002484   -0.003418   -0.000555
C    -1.960093   -0.048473    4.047847    0.001055   -0.001392   -0.000600
H    -2.297976   -0.836379    4.740402    0.001341   -0.001570   -0.000614
O    -0.785911    0.468200    4.643110    0.001802   -0.001809   -0.001047
C    -0.234132    1.603716    4.015779    0.001122   -0.000770   -0.000203
H     0.119156    1.372007    3.001127    0.000537    0.000558   -0.000670
H     0.638912    1.896269    4.615422    0.001111   -0.000976    0.000020
C    -1.240409    2.759793    3.981504    0.000800   -0.000993    0.001206
H    -1.366954    3.121189    5.009910    0.000732   -0.001891    0.001537
C    -2.599113    2.332399    3.421926    0.001025   -0.001085    0.000726
H    -2.563868    2.220727    2.331848    0.001381   -0.001518    0.000738
H    -3.350702    3.117112    3.624592    0.000813   -0.001238    0.000570
N    -0.675154    3.896325    3.234534    0.000583   -0.000171    0.002144
C    -0.069459    4.907087    3.955769    0.001107   -0.001228    0.002818
O    -0.011106    4.938581    5.172447    0.002345   -0.002596    0.002969
N     0.476667    5.910813    3.181175    0.000369   -0.000217    0.003721
H     0.971003    6.629994    3.697839    0.000714   -0.000828    0.004196
C     0.533315    5.998641    1.791516   -0.000572    0.001519    0.003675
O     1.098474    6.943454    1.261463   -0.000727    0.002423    0.004867
C    -0.117677    4.892189    1.104172   -0.000886    0.002374    0.002797
C    -0.162990    4.877959   -0.394516   -0.001538    0.003471    0.002765
H    -0.632848    3.948362   -0.746893    0.000052    0.002912    0.002146
H    -0.744046    5.733565   -0.773411   -0.003071    0.002901    0.003713
H     0.846162    4.965681   -0.823562   -0.001860    0.005220    0.002433
C    -0.656930    3.901128    1.853079   -0.000164    0.001220    0.001942
H    -1.119707    3.043626    1.347931    0.000323    0.001338    0.000797
C    -3.077040    1.002761    4.007521    0.001338   -0.001161    0.000626
H    -3.888049    0.614908    3.364677    0.000920   -0.000814    0.001051
O    -3.551123    1.153274    5.341128    0.002093   -0.001501    0.001236
H    -3.938180    2.027095    5.433086    0.002389   -0.001374    0.001321
69
* Frequency(6) -139.0520
H     3.081895   -2.858876   -2.448555    1.522125   -0.920225    0.892526
O     2.360176   -2.059422   -1.930411   -0.106292    0.060521    0.003083
C     1.481859   -2.839083   -1.140616   -0.032922   -0.023654   -0.015688
H     0.827809   -3.455348   -1.789350   -0.074958    0.031251   -0.043171
H     2.029540   -3.513492   -0.454286   -0.064470   -0.062442   -0.017854
C     0.574254   -1.946807   -0.298666    0.004726   -0.000683   -0.011040
H    -0.198847   -2.617314    0.107608   -0.001591    0.009693   -0.009422
O     1.228070   -1.430185    0.840431    0.017372   -0.008397   -0.015498
C     2.052605   -0.303759    0.650472   -0.000392    0.008298   -0.000859
H     2.919891   -0.544265    0.005695    0.007012    0.019854    0.006378
H     2.418075   -0.019837    1.646442   -0.016287    0.008238    0.005104
C     1.255613    0.847496    0.037142   -0.003801    0.001701   -0.008801
H     0.466562    1.134869    0.743336   -0.010732    0.001617   -0.016639
C     0.618355    0.410250   -1.275505    0.011069   -0.007068   -0.013734
H     1.407674    0.191273   -2.011717    0.010176   -0.030020   -0.009249
H    -0.044691    1.198788   -1.658664    0.019189   -0.007026   -0.027595
N     2.108379    2.022901   -0.138916   -0.004574    0.003709   -0.003567
C     2.507590    2.643226   -1.297453   -0.004809    0.004225   -0.003124
H     2.254816    2.233863   -2.273190   -0.006291    0.003474   -0.002636
N     3.179508    3.749382   -1.109819   -0.003262    0.003660   -0.002068
C     3.231807    3.876565    0.260597   -0.002454    0.002052   -0.001940
C     3.702025    4.895686    1.113818   -0.001469    0.000802   -0.001280
N     4.277524    6.030784    0.634099   -0.001660    0.001728   -0.000874
H     4.066237    6.250771   -0.331525   -0.006019    0.002714    0.000192
H     4.256534    6.815469    1.273989   -0.004905    0.001222   -0.000250
N     3.578404    4.733262    2.433566    0.000323   -0.000369   -0.001248
C     2.977112    3.628695    2.897021    0.000268   -0.000738   -0.001947
H     2.904799    3.550611    3.988026    0.001520   -0.002030   -0.001939
N     2.442021    2.638933    2.199333   -0.001179    0.000514   -0.002453
C     2.579946    2.811980    0.880857   -0.003394    0.001769   -0.002777
C    -0.184549   -0.888580   -1.132459    0.003028    0.000304   -0.012328
H    -0.286605   -1.305597   -2.147881    0.004640   -0.000566   -0.007884
O    -1.511121   -0.767785   -0.666203    0.005268    0.002451    0.001983
P    -2.220755    0.381584    0.291331    0.004576    0.001078   -0.002155
O    -3.630524   -0.066910    0.504937    0.003836    0.003146    0.001178
O    -1.822705    1.760715   -0.174694    0.002981    0.003457    0.003151
O    -1.365718    0.202964    1.702934    0.003701    0.000151    0.001256
C    -1.707370   -0.727920    2.702661    0.000201   -0.000060   -0.001420
H    -2.613225   -1.286559    2.409529   -0.001304    0.002886   -0.002825
H    -0.868960   -1.435766    2.820411   -0.002484   -0.003418   -0.000555
C    -1.960045   -0.048538    4.047820    0.001055   -0.001392   -0.000600
H    -2.297914   -0.836452    4.740374    0.001341   -0.001570   -0.000614
O    -0.785828    0.468116    4.643061    0.001802   -0.001809   -0.001047
C    -0.234080    1.603681    4.015770    0.001122   -0.000770   -0.000203
H     0.119181    1.372033    3.001096    0.000537    0.000558   -0.000670
H     0.638964    1.896224    4.615423    0.001111   -0.000976    0.000020
C    -1.240372    2.759747    3.981560    0.000800   -0.000993    0.001206
H    -1.366920    3.121102    5.009982    0.000732   -0.001891    0.001537
C    -2.599066    2.332349    3.421959    0.001025   -0.001085    0.000726
H    -2.563804    2.220656    2.331882    0.001381   -0.001518    0.000738
H    -3.350665    3.117055    3.624619    0.000813   -0.001238    0.000570
N    -0.675127    3.896317    3.234633    0.000583   -0.000171    0.002144
C    -0.069408    4.907030    3.955900    0.001107   -0.001228    0.002818
O    -0.010998    4.938461    5.172585    0.002345   -0.002596    0.002969
N     0.476684    5.910803    3.181347    0.000369   -0.000217    0.003721
H     0.971036    6.629956    3.698033    0.000714   -0.000828    0.004196
C     0.533289    5.998711    1.791686   -0.000572    0.001519    0.003675
O     1.098441    6.943567    1.261689   -0.000727    0.002423    0.004867
C    -0.117718    4.892298    1.104301   -0.000886    0.002374    0.002797
C    -0.163062    4.878120   -0.394388   -0.001538    0.003471    0.002765
H    -0.632846    3.948497   -0.746793    0.000052    0.002912    0.002146
H    -0.744188    5.733699   -0.773239   -0.003071    0.002901    0.003713
H     0.846075    4.965922   -0.823449   -0.001860    0.005220    0.002433
C    -0.656937    3.901185    1.853169   -0.000164    0.001220    0.001942
H    -1.119692    3.043688    1.347968    0.000323    0.001338    0.000797
C    -3.076978    1.002707    4.007550    0.001338   -0.001161    0.000626
H    -3.888007    0.614871    3.364725    0.000920   -0.000814    0.001051
O    -3.551026    1.153205    5.341185    0.002093   -0.001501    0.001236
H    -3.938069    2.027031    5.433147    0.002389   -0.001374    0.001321
69
* Frequency(6) -139.0520
H     3.096378   -2.867631   -2.440063    1.522125   -0.920225    0.892526
O     2.359165   -2.058846   -1.930381   -0.106292    0.060521    0.003083
C     1.481546   -2.839308   -1.140765   -0.032922   -0.023654   -0.015688
H     0.827096   -3.455051   -1.789761   -0.074958    0.031251   -0.043171
H     2.028927   -3.514086   -0.454456   -0.064470   -0.062442   -0.017854
C     0.574299   -1.946814   -0.298771    0.004726   -0.000683   -0.011040
H    -0.198862   -2.617222    0.107518   -0.001591    0.009693   -0.009422
O     1.228236   -1.430264    0.840283    0.017372   -0.008397   -0.015498
C     2.052601   -0.303681    0.650464   -0.000392    0.008298   -0.000859
H     2.919957   -0.544076    0.005755    0.007012    0.019854    0.006378
H     2.417920   -0.019759    1.646491   -0.016287    0.008238    0.005104
C     1.255577    0.847512    0.037059   -0.003801    0.001701   -0.008801
H     0.466460    1.134884    0.743178   -0.010732    0.001617   -0.016639
C     0.618461    0.410183   -1.275636    0.011069   -0.007068   -0.013734
H     1.407771    0.190988   -2.011805    0.010176   -0.030020   -0.009249
H    -0.044509    1.198721   -1.658926    0.019189   -0.007026   -0.027595
N     2.108335    2.022936   -0.138950   -0.004574    0.003709   -0.003567
C     2.507545    2.643266   -1.297483   -0.004809    0.004225   -0.003124
H     2.254756    2.233896   -2.273215   -0.006291    0.003474   -0.002636
N     3.179477    3.749417   -1.109838   -0.003262    0.003660   -0.002068
C     3.231783    3.876585    0.260579   -0.002454    0.002052   -0.001940
C     3.702011    4.895693    1.113806   -0.001469    0.000802   -0.001280
N     4.277508    6.030800    0.634091   -0.001660    0.001728   -0.000874
H     4.066180    6.250797   -0.331523   -0.006019    0.002714    0.000192
H     4.256488    6.815480    1.273987   -0.004905    0.001222   -0.000250
N     3.578407    4.733258    2.433554    0.000323   -0.000369   -0.001248
C     2.977115    3.628688    2.897002    0.000268   -0.000738   -0.001947
H     2.904813    3.550592    3.988008    0.001520   -0.002030   -0.001939
N     2.442010    2.638938    2.199309   -0.001179    0.000514   -0.002453
C     2.579914    2.811997    0.880830   -0.003394    0.001769   -0.002777
C    -0.184520   -0.888577   -1.132577    0.003028    0.000304   -0.012328
H    -0.286561   -1.305602   -2.147956    0.004640   -0.000566   -0.007884
O    -1.511071   -0.767762   -0.666184    0.005268    0.002451    0.001983
P    -2.220712    0.381594    0.291310    0.004576    0.001078   -0.002155
O    -3.630487   -0.066880    0.504948    0.003836    0.003146    0.001178
O    -1.822676    1.760748   -0.174664    0.002981    0.003457    0.003151
O    -1.365683    0.202966    1.702946    0.003701    0.000151    0.001256
C    -1.707368   -0.727921    2.702647    0.000201   -0.000060   -0.001420
H    -2.613237   -1.286532    2.409502   -0.001304    0.002886   -0.002825
H    -0.868984   -1.435799    2.820406   -0.002484   -0.003418   -0.000555
C    -1.960035   -0.048551    4.047814    0.001055   -0.001392   -0.000600
H    -2.297901   -0.836467    4.740368    0.001341   -0.001570   -0.000614
O    -0.785811    0.468099    4.643051    0.001802   -0.001809   -0.001047
C    -0.234070    1.603673    4.015768    0.001122   -0.000770   -0.000203
H     0.119186    1.372038    3.001090    0.000537    0.000558   -0.000670
H     0.638974    1.896215    4.615423    0.001111   -0.000976    0.000020
C    -1.240364    2.759738    3.981571    0.000800   -0.000993    0.001206
H    -1.366913    3.121084    5.009996    0.000732   -0.001891    0.001537
C    -2.599056    2.332338    3.421966    0.001025   -0.001085    0.000726
H    -2.563791    2.220642    2.331889    0.001381   -0.001518    0.000738
H    -3.350657    3.117043    3.624624    0.000813   -0.001238    0.000570
N    -0.675122    3.896315    3.234654    0.000583   -0.000171    0.002144