
                                 *****************
                                 * O   R   C   A *
                                 *****************

           --- An Ab Initio, DFT and Semiempirical electronic structure package ---

                  #######################################################
                  #                        -***-                        #
                  #          Department of theory and spectroscopy      #
                  #               Directorship: Frank Neese             #
                  #        Max Planck Institute fuer Kohlenforschung    #
                  #                Kaiser Wilhelm Platz 1               #
                  #                 D-45470 Muelheim/Ruhr               #
                  #                      Germany                        #
                  #                                                     #
                  #                  All rights reserved                #
                  #                        -***-                        #
                  #######################################################


                         Program Version 4.2.1 -  RELEASE  -


 With contributions from (in alphabetic order):
   Daniel Aravena         : Magnetic Suceptibility
   Michael Atanasov       : Ab Initio Ligand Field Theory (pilot matlab implementation)
   Alexander A. Auer      : GIAO ZORA, VPT2
   Ute Becker             : Parallelization
   Giovanni Bistoni       : ED, misc. LED, open-shell LED, HFLD
   Martin Brehm           : Molecular dynamics
   Dmytro Bykov           : SCF Hessian
   Vijay G. Chilkuri      : MRCI spin determinant printing, contributions to CSF-ICE
   Dipayan Datta          : RHF DLPNO-CCSD density
   Achintya Kumar Dutta   : EOM-CC, STEOM-CC
   Dmitry Ganyushin       : Spin-Orbit,Spin-Spin,Magnetic field MRCI
   Miquel Garcia          : C-PCM Hessian, Gaussian charge scheme
   Yang Guo               : DLPNO-NEVPT2, CIM, IAO-localization
   Andreas Hansen         : Spin unrestricted coupled pair/coupled cluster methods
   Benjamin Helmich-Paris : CASSCF linear response (MC-RPA)
   Lee Huntington         : MR-EOM, pCC
   Robert Izsak           : Overlap fitted RIJCOSX, COSX-SCS-MP3, EOM
   Christian Kollmar      : KDIIS, OOCD, Brueckner-CCSD(T), CCSD density
   Simone Kossmann        : Meta GGA functionals, TD-DFT gradient, OOMP2, MP2 Hessian
   Martin Krupicka        : AUTO-CI
   Lucas Lang             : DCDCAS
   Dagmar Lenk            : GEPOL surface, SMD
   Dimitrios Liakos       : Extrapolation schemes; Compound Job, initial MDCI parallelization
   Dimitrios Manganas     : Further ROCIS development; embedding schemes
   Dimitrios Pantazis     : SARC Basis sets
   Taras Petrenko         : DFT Hessian,TD-DFT gradient, ASA, ECA, R-Raman, ABS, FL, XAS/XES, NRVS
   Peter Pinski           : DLPNO-MP2, DLPNO-MP2 Gradient
   Christoph Reimann      : Effective Core Potentials
   Marius Retegan         : Local ZFS, SOC
   Christoph Riplinger    : Optimizer, TS searches, QM/MM, DLPNO-CCSD(T), (RO)-DLPNO pert. Triples
   Tobias Risthaus        : Range-separated hybrids, TD-DFT gradient, RPA, STAB
   Michael Roemelt        : Original ROCIS implementation
   Masaaki Saitow         : Open-shell DLPNO-CCSD energy and density
   Barbara Sandhoefer     : DKH picture change effects
   Avijit Sen             : IP-ROCIS
   Kantharuban Sivalingam : CASSCF convergence, NEVPT2, FIC-MRCI
   Bernardo de Souza      : ESD, SOC TD-DFT
   Georgi Stoychev        : AutoAux, RI-MP2 NMR
   Willem Van den Heuvel  : Paramagnetic NMR
   Boris Wezisla          : Elementary symmetry handling
   Frank Wennmohs         : Technical directorship


 We gratefully acknowledge several colleagues who have allowed us to
 interface, adapt or use parts of their codes:
   Stefan Grimme, W. Hujo, H. Kruse,             : VdW corrections, initial TS optimization,
                  C. Bannwarth                     DFT functionals, gCP, sTDA/sTD-DF
   Ed Valeev, F. Pavosevic, A. Kumar             : LibInt (2-el integral package), F12 methods
   Garnet Chan, S. Sharma, J. Yang, R. Olivares  : DMRG
   Ulf Ekstrom                                   : XCFun DFT Library
   Mihaly Kallay                                 : mrcc  (arbitrary order and MRCC methods)
   Andreas Klamt, Michael Diedenhofen            : otool_cosmo (COSMO solvation model)
   Jiri Pittner, Ondrej Demel                    : Mk-CCSD
   Frank Weinhold                                : gennbo (NPA and NBO analysis)
   Christopher J. Cramer and Donald G. Truhlar   : smd solvation model
   Lars Goerigk                                  : TD-DFT with DH, B97 family of functionals
   V. Asgeirsson, H. Jonsson                     : NEB implementation
   FAccTs GmbH                                   : IRC, NEB, NEB-TS, Multilevel, MM, QM/MM, CI optimization
   S Lehtola, MJT Oliveira, MAL Marques          : LibXC Library


 Your calculation uses the libint2 library for the computation of 2-el integrals
 For citations please refer to: http://libint.valeyev.net

 Your ORCA version has been built with support for libXC version: 4.2.3
 For citations please refer to: https://tddft.org/programs/libxc/

 This ORCA versions uses:
   CBLAS   interface :  Fast vector & matrix operations
   LAPACKE interface :  Fast linear algebra routines
   SCALAPACK package :  Parallel linear algebra routines




***************************************
The coordinates will be read from file: ../01_HF3c_Opt/BtypeDuplex.xyz
***************************************


Your calculation utilizes the atom-pairwise dispersion correction
with the zero-damping scheme (D30)
Cite in your paper:
S.Grimme, J.Antony, S.Ehrlich and H.Krieg, J.Chem.Phys., 132, (2010), 154104 
   

XCFun DFT library Copyright 2009-2010 Ulf Ekstrom and contributors.
See http://admol.org/xcfun for more information. This is free soft-
ware; see the source code for copying conditions. There is ABSOLUTELY
NO WARRANTY; not even for MERCHANTABILITY or FITNESS FOR A PARTICULAR
PURPOSE. For details see the documentation. Scientific users of this 
library should cite U. Ekstrom, L. Visscher, R. Bast, A. J. Thorvald-
sen and K. Ruud; J.Chem.Theor.Comp. 2010, DOI: 10.1021/ct100117s
XCFun Version 0.99 
----- Orbital basis set information -----
Your calculation utilizes the basis: ma-def2-SVP
   F. Weigend and R. Ahlrichs, Phys. Chem. Chem. Phys. 7, 3297 (2005).
   J. Zheng, X. Xu and D. G. Truhlar, Theor. Chem. Acc. 128, 295 (2011).

================================================================================
                                        WARNINGS
                       Please study these warnings very carefully!
================================================================================


WARNING: Geometry Optimization
  ===> : Switching off AutoStart
         For restart on a previous wavefunction, please use MOREAD

INFO   : the flag for use of LIBINT has been found!

================================================================================
                                       INPUT FILE
================================================================================
NAME = BtypeDuplex.in
|  1> !wb97x-d3 ma-def2-svp TightOpt Freq KeepDens NoKeepInts
|  2> 
|  3> %pal
|  4> nprocs 16
|  5> end
|  6> 
|  7> %maxcore 3000
|  8> 
|  9> %scf
| 10> convergence VeryTight
| 11> end
| 12> 
| 13> %geom
| 14> Constraints
| 15> {D 0 1 2 5 C} #beta1
| 16> {D 40 65 67 68 C} #epsilon2
| 17> end
| 18> end
| 19> 
| 20> *xyzfile -1 1 ../01_HF3c_Opt/BtypeDuplex.xyz
| 21> 
| 22>                          ****END OF INPUT****
================================================================================

                       *****************************
                       * Geometry Optimization Run *
                       *****************************

Geometry optimization settings:
Update method            Update   .... BFGS
Choice of coordinates    CoordSys .... Z-matrix Internals
Initial Hessian          InHess   .... Almoef's Model

Convergence Tolerances:
Energy Change            TolE     ....  1.0000e-06 Eh
Max. Gradient            TolMAXG  ....  1.0000e-04 Eh/bohr
RMS Gradient             TolRMSG  ....  3.0000e-05 Eh/bohr
Max. Displacement        TolMAXD  ....  1.0000e-03 bohr
RMS Displacement         TolRMSD  ....  6.0000e-04 bohr
Strict Convergence                ....  False
------------------------------------------------------------------------------
                        ORCA OPTIMIZATION COORDINATE SETUP
------------------------------------------------------------------------------

The optimization will be done in new redundant internal coordinates
Making redundant internal coordinates   ...  (new redundants) done
Evaluating the initial hessian          ...  (Almloef) done
Evaluating the coordinates              ...  done
Calculating the B-matrix                .... done
Calculating the G-matrix                .... done
Diagonalizing the G-matrix              .... done
Imposing constraints:
 Iter   0:  RMS(Cart)=    0.0000000000 RMS(Int)=    0.0000000000
CONVERGED
Small eigenvalue found = 1.138e-03
Small eigenvalue found = 3.916e-03
Small eigenvalue found = 6.781e-03
Small eigenvalue found = 1.142e-02
Small eigenvalue found = 1.560e-02
Small eigenvalue found = 1.722e-02
Small eigenvalue found = 2.023e-02
Small eigenvalue found = 2.899e-02
The first mode is                       ....  202
The number of degrees of freedom        ....  201
Storing new coordinates                 .... done

    -----------------------------------------------------------------
                    Redundant Internal Coordinates


    -----------------------------------------------------------------
         Definition                    Initial Value    Approx d2E/dq
    -----------------------------------------------------------------
      1. B(O   1,H   0)                  0.9734         0.494986   
      2. B(C   2,O   1)                  1.4297         0.483694   
      3. B(H   3,C   2)                  1.0946         0.354014   
      4. B(H   4,C   2)                  1.0962         0.352013   
      5. B(C   5,C   2)                  1.5742         0.317621   
      6. B(H   6,C   5)                  1.0936         0.355385   
      7. B(O   7,C   5)                  1.4138         0.512711   
      8. B(C   8,O   7)                  1.4147         0.510986   
      9. B(H   9,C   8)                  1.0957         0.352632   
     10. B(H  10,C   8)                  1.0935         0.355475   
     11. B(C  11,C   8)                  1.5599         0.334751   
     12. B(H  12,C  11)                  1.0902         0.359774   
     13. B(C  13,C  11)                  1.5399         0.360226   
     14. B(H  14,C  13)                  1.0820         0.370884   
     15. B(H  15,C  13)                  1.0851         0.366583   
     16. B(N  16,C  11)                  1.4650         0.424795   
     17. B(C  17,N  16)                  1.3928         0.553892   
     18. B(H  18,C  17)                  1.0832         0.369150   
     19. B(N  19,C  17)                  1.3005         0.777313   
     20. B(C  20,N  19)                  1.3981         0.543207   
     21. B(C  21,C  20)                  1.4167         0.566493   
     22. B(N  22,C  21)                  1.3758         0.589622   
     23. B(H  23,N  22)                  1.0086         0.434869   
     24. B(H  24,N  22)                  1.0081         0.435746   
     25. B(N  25,C  21)                  1.3303         0.696855   
     26. B(C  26,N  25)                  1.3541         0.638421   
     27. B(H  27,C  26)                  1.0911         0.358682   
     28. B(N  28,C  26)                  1.3244         0.712063   
     29. B(C  29,N  16)                  1.3724         0.596936   
     30. B(C  29,C  20)                  1.3962         0.610736   
     31. B(C  29,N  28)                  1.3470         0.655458   
     32. B(C  30,C   5)                  1.5826         0.307901   
     33. B(C  30,C  13)                  1.5610         0.333400   
     34. B(H  31,C  30)                  1.0939         0.355029   
     35. B(O  32,C  30)                  1.3944         0.550536   
     36. B(P  33,O  32)                  1.6055         0.852112   
     37. B(O  34,P  33)                  1.4241         1.659280   
     38. B(O  35,P  33)                  1.4327         1.607729   
     39. B(O  36,P  33)                  1.6104         0.837132   
     40. B(C  37,O  36)                  1.3984         0.542592   
     41. B(H  38,C  37)                  1.0954         0.353051   
     42. B(H  39,C  37)                  1.0963         0.351816   
     43. B(C  40,C  37)                  1.5763         0.315095   
     44. B(H  41,C  40)                  1.0927         0.356486   
     45. B(O  42,C  40)                  1.4175         0.505898   
     46. B(C  43,O  42)                  1.4169         0.507033   
     47. B(H  44,H  12)                  2.2618         0.000931   
     48. B(H  44,C  43)                  1.0939         0.354983   
     49. B(H  45,C  43)                  1.0920         0.357418   
     50. B(C  46,C  43)                  1.5641         0.329643   
     51. B(H  47,C  46)                  1.0878         0.363011   
     52. B(C  48,C  46)                  1.5462         0.351968   
     53. B(H  49,C  48)                  1.0802         0.373333   
     54. B(H  50,C  48)                  1.0842         0.367876   
     55. B(N  51,C  46)                  1.4676         0.420777   
     56. B(C  52,H  27)                  3.1527         0.000184   
     57. B(C  52,N  51)                  1.4004         0.538624   
     58. B(O  53,C  52)                  1.2137         1.069571   
     59. B(N  54,C  52)                  1.4027         0.534007   
     60. B(H  55,N  54)                  1.0114         0.430469   
     61. B(C  56,N  54)                  1.4150         0.510564   
     62. B(O  57,C  56)                  1.2126         1.073664   
     63. B(C  58,C  56)                  1.4871         0.437306   
     64. B(C  59,C  58)                  1.5153         0.394312   
     65. B(H  60,O  35)                  2.5370         0.001585   
     66. B(H  60,C  59)                  1.0879         0.362912   
     67. B(H  61,C  59)                  1.0860         0.365465   
     68. B(H  62,C  59)                  1.0855         0.366149   
     69. B(H  62,N  19)                  2.6719         0.000966   
     70. B(C  63,N  51)                  1.3897         0.560186   
     71. B(C  63,C  58)                  1.3288         0.782218   
     72. B(H  64,C  63)                  1.1028         0.343509   
     73. B(C  65,C  40)                  1.5658         0.327500   
     74. B(C  65,C  48)                  1.5552         0.340571   
     75. B(H  66,C  65)                  1.0971         0.350846   
     76. B(O  67,C  65)                  1.4310         0.481383   
     77. B(H  68,O  67)                  0.9735         0.494828   
     78. A(H   0,O   1,C   2)          109.4741         0.351811   
     79. A(H   3,C   2,H   4)          107.7575         0.289031   
     80. A(H   4,C   2,C   5)          108.0691         0.314670   
     81. A(H   3,C   2,C   5)          107.1441         0.314960   
     82. A(O   1,C   2,H   3)          111.0213         0.335483   
     83. A(O   1,C   2,H   4)          110.7291         0.335167   
     84. A(O   1,C   2,C   5)          111.9376         0.367076   
     85. A(C   2,C   5,C  30)          111.1343         0.342135   
     86. A(C   2,C   5,H   6)          106.4162         0.315158   
     87. A(H   6,C   5,O   7)          105.5074         0.338973   
     88. A(C   2,C   5,O   7)          111.7668         0.370767   
     89. A(O   7,C   5,C  30)          115.2561         0.368791   
     90. A(H   6,C   5,C  30)          106.0332         0.313572   
     91. A(C   5,O   7,C   8)          115.5998         0.400200   
     92. A(H   9,C   8,C  11)          109.3409         0.317460   
     93. A(O   7,C   8,H   9)          111.8217         0.338343   
     94. A(O   7,C   8,C  11)          110.3806         0.373919   
     95. A(H  10,C   8,C  11)          109.0949         0.317876   
     96. A(H   9,C   8,H  10)          108.9838         0.289297   
     97. A(O   7,C   8,H  10)          107.1533         0.338797   
     98. A(H  12,C  11,C  13)          109.0840         0.322341   
     99. A(C   8,C  11,H  12)          108.3157         0.318499   
    100. A(C   8,C  11,C  13)          109.9610         0.354427   
    101. A(C   8,C  11,N  16)          109.9649         0.362252   
    102. A(H  12,C  11,N  16)          108.0468         0.329220   
    103. A(C  13,C  11,N  16)          111.3916         0.366826   
    104. A(H  14,C  13,H  15)          110.2017         0.293014   
    105. A(H  15,C  13,C  30)          108.7843         0.319264   
    106. A(C  11,C  13,H  14)          109.3798         0.323953   
    107. A(H  14,C  13,C  30)          107.3427         0.319873   
    108. A(C  11,C  13,C  30)          111.4636         0.354184   
    109. A(C  11,C  13,H  15)          109.6405         0.323333   
    110. A(C  11,N  16,C  29)          124.5218         0.397910   
    111. A(C  17,N  16,C  29)          106.0704         0.417032   
    112. A(C  11,N  16,C  17)          129.3666         0.392721   
    113. A(H  18,C  17,N  19)          125.6850         0.366034   
    114. A(N  16,C  17,H  18)          121.4067         0.345580   
    115. A(N  16,C  17,N  19)          112.9040         0.437233   
    116. A(C  17,N  19,C  20)          105.3474         0.435701   
    117. A(N  19,C  20,C  21)          133.9108         0.414420   
    118. A(N  19,C  20,C  29)          109.5089         0.420006   
    119. A(C  21,C  20,C  29)          116.5421         0.425938   
    120. A(C  20,C  21,N  22)          121.6491         0.420515   
    121. A(C  20,C  21,N  25)          119.0666         0.433294   
    122. A(N  22,C  21,N  25)          119.2811         0.433567   
    123. A(C  21,N  22,H  23)          117.8844         0.355920   
    124. A(C  21,N  22,H  24)          117.8330         0.356042   
    125. A(H  23,N  22,H  24)          118.8403         0.303839   
    126. A(C  21,N  25,C  26)          118.7220         0.439825   
    127. A(N  25,C  26,H  27)          115.8001         0.352242   
    128. A(N  25,C  26,N  28)          127.4939         0.441543   
    129. A(H  27,C  26,N  28)          116.7030         0.358828   
    130. A(C  26,N  28,C  29)          113.3967         0.443651   
    131. A(N  16,C  29,C  20)          106.1679         0.427149   
    132. A(N  16,C  29,N  28)          129.0742         0.429773   
    133. A(C  20,C  29,N  28)          124.7556         0.434383   
    134. A(C   5,C  30,O  32)          110.3653         0.373336   
    135. A(H  31,C  30,O  32)          106.9124         0.342975   
    136. A(C   5,C  30,C  13)          111.1559         0.344929   
    137. A(C   5,C  30,H  31)          105.6405         0.313521   
    138. A(C  13,C  30,H  31)          106.0477         0.317601   
    139. A(C  13,C  30,O  32)          116.0105         0.378502   
    140. A(C  30,O  32,P  33)          131.3520         0.474795   
    141. A(O  32,P  33,O  34)          106.0726         0.627091   
    142. A(O  32,P  33,O  35)          109.7438         0.623261   
    143. A(O  34,P  33,O  35)          125.2251         0.710242   
    144. A(O  32,P  33,O  36)          100.0476         0.549898   
    145. A(O  34,P  33,O  36)          109.1225         0.624935   
    146. A(O  35,P  33,O  36)          103.8366         0.621120   
    147. A(P  33,O  36,C  37)          125.0079         0.471987   
    148. A(O  36,C  37,H  38)          111.2807         0.341821   
    149. A(O  36,C  37,H  39)          109.6860         0.341621   
    150. A(H  38,C  37,H  39)          108.3862         0.288883   
    151. A(O  36,C  37,C  40)          112.5840         0.373887   
    152. A(H  38,C  37,C  40)          107.3296         0.314413   
    153. A(H  39,C  37,C  40)          107.4043         0.314234   
    154. A(C  37,C  40,H  41)          107.0560         0.314908   
    155. A(C  37,C  40,O  42)          113.2746         0.369408   
    156. A(H  41,C  40,O  42)          105.7006         0.338392   
    157. A(C  37,C  40,C  65)          112.1477         0.345232   
    158. A(H  41,C  40,C  65)          106.5389         0.316890   
    159. A(O  42,C  40,C  65)          111.5657         0.371869   
    160. A(C  40,O  42,C  43)          114.1881         0.398715   
    161. A(O  42,C  43,H  44)          111.9808         0.338280   
    162. A(O  42,C  43,H  45)          107.4328         0.338666   
    163. A(H  44,C  43,H  45)          108.2190         0.289847   
    164. A(O  42,C  43,C  46)          111.0185         0.372431   
    165. A(H  44,C  43,C  46)          109.3050         0.317009   
    166. A(H  45,C  43,C  46)          108.7799         0.317362   
    167. A(C  43,C  46,H  47)          107.8745         0.318166   
    168. A(C  43,C  46,C  48)          111.6181         0.352120   
    169. A(H  47,C  46,C  48)          109.5133         0.321591   
    170. A(C  43,C  46,N  51)          110.0802         0.360717   
    171. A(H  47,C  46,N  51)          106.2196         0.329190   
    172. A(C  48,C  46,N  51)          111.3297         0.364777   
    173. A(C  46,C  48,H  49)          110.4892         0.323071   
    174. A(C  46,C  48,H  50)          109.5821         0.322292   
    175. A(H  49,C  48,H  50)          107.1317         0.293481   
    176. A(C  46,C  48,C  65)          111.8165         0.354069   
    177. A(H  49,C  48,C  65)          108.1034         0.321334   
    178. A(H  50,C  48,C  65)          109.5949         0.320561   
    179. A(C  46,N  51,C  52)          116.8322         0.390157   
    180. A(C  46,N  51,C  63)          121.6570         0.392845   
    181. A(C  52,N  51,C  63)          121.2828         0.410309   
    182. A(N  51,C  52,O  53)          123.6389         0.460960   
    183. A(N  51,C  52,N  54)          114.4687         0.406847   
    184. A(O  53,C  52,N  54)          121.8902         0.460235   
    185. A(C  52,N  54,H  55)          115.3229         0.349402   
    186. A(C  52,N  54,C  56)          127.3652         0.403021   
    187. A(H  55,N  54,C  56)          117.2425         0.346769   
    188. A(N  54,C  56,O  57)          120.4548         0.456800   
    189. A(N  54,C  56,C  58)          113.1426         0.391629   
    190. A(O  57,C  56,C  58)          126.4018         0.447076   
    191. A(C  56,C  58,C  59)          117.9697         0.376807   
    192. A(C  56,C  58,C  63)          119.6842         0.425073   
    193. A(C  59,C  58,C  63)          122.3452         0.417292   
    194. A(C  58,C  59,H  60)          109.0502         0.327634   
    195. A(C  58,C  59,H  61)          110.6326         0.328013   
    196. A(H  60,C  59,H  61)          108.9505         0.291873   
    197. A(C  58,C  59,H  62)          110.8381         0.328114   
    198. A(H  60,C  59,H  62)          109.5743         0.291959   
    199. A(H  61,C  59,H  62)          107.7633         0.292281   
    200. A(N  51,C  63,C  58)          123.9708         0.441523   
    201. A(N  51,C  63,H  64)          117.6667         0.342079   
    202. A(C  58,C  63,H  64)          118.3587         0.364209   
    203. A(C  40,C  65,C  48)          111.6929         0.349781   
    204. A(C  40,C  65,H  66)          107.9550         0.316069   
    205. A(C  48,C  65,H  66)          107.5691         0.318090   
    206. A(C  40,C  65,O  67)          106.8149         0.368707   
    207. A(C  48,C  65,O  67)          111.9034         0.371195   
    208. A(H  66,C  65,O  67)          110.8676         0.334715   
    209. A(C  65,O  67,H  68)          108.8766         0.351508   
    210. D(H   3,C   2,O   1,H   0)    -27.3480         0.018463   
    211. D(H   4,C   2,O   1,H   0)     92.3075         0.018463   
    212. D(C   5,C   2,O   1,H   0)   -147.0324         0.018463 C 
    213. D(O   7,C   5,C   2,H   4)     41.3093         0.008284   
    214. D(C  30,C   5,C   2,H   3)    -72.5096         0.008284   
    215. D(C  30,C   5,C   2,H   4)    171.6178         0.008284   
    216. D(H   6,C   5,C   2,O   1)    164.4224         0.008284   
    217. D(O   7,C   5,C   2,O   1)    -80.8840         0.008284   
    218. D(H   6,C   5,C   2,H   4)    -73.3844         0.008284   
    219. D(O   7,C   5,C   2,H   3)    157.1819         0.008284   
    220. D(C  30,C   5,C   2,O   1)     49.4246         0.008284   
    221. D(H   6,C   5,C   2,H   3)     42.4883         0.008284   
    222. D(C   8,O   7,C   5,C   2)     76.7402         0.020818   
    223. D(C   8,O   7,C   5,H   6)   -168.0080         0.020818   
    224. D(C   8,O   7,C   5,C  30)    -51.4041         0.020818   
    225. D(C  11,C   8,O   7,C   5)     59.3416         0.020673   
    226. D(H   9,C   8,O   7,C   5)    -62.6188         0.020673   
    227. D(H  10,C   8,O   7,C   5)    178.0202         0.020673   
    228. D(N  16,C  11,C   8,O   7)    177.3489         0.009100   
    229. D(H  12,C  11,C   8,H  10)    -58.0071         0.009100   
    230. D(C  13,C  11,C   8,H   9)     63.7726         0.009100   
    231. D(C  13,C  11,C   8,H  10)   -177.1271         0.009100   
    232. D(C  13,C  11,C   8,O   7)    -59.6396         0.009100   
    233. D(N  16,C  11,C   8,H  10)     59.8614         0.009100   
    234. D(H  12,C  11,C   8,H   9)   -177.1073         0.009100   
    235. D(H  12,C  11,C   8,O   7)     59.4804         0.009100   
    236. D(N  16,C  11,C   8,H   9)    -59.2388         0.009100   
    237. D(H  14,C  13,C  11,C   8)    -65.4588         0.010410   
    238. D(H  14,C  13,C  11,H  12)    175.8926         0.010410   
    239. D(H  14,C  13,C  11,N  16)     56.7103         0.010410   
    240. D(H  15,C  13,C  11,C   8)    173.5960         0.010410   
    241. D(H  15,C  13,C  11,H  12)     54.9474         0.010410   
    242. D(H  15,C  13,C  11,N  16)    -64.2349         0.010410   
    243. D(C  30,C  13,C  11,C   8)     53.0857         0.010410   
    244. D(C  30,C  13,C  11,H  12)    -65.5629         0.010410   
    245. D(C  30,C  13,C  11,N  16)    175.2548         0.010410   
    246. D(C  29,N  16,C  11,C   8)    -74.5051         0.015385   
    247. D(C  17,N  16,C  11,C   8)    108.1635         0.015385   
    248. D(C  29,N  16,C  11,H  12)     43.5297         0.015385   
    249. D(C  17,N  16,C  11,H  12)   -133.8016         0.015385   
    250. D(C  29,N  16,C  11,C  13)    163.3280         0.015385   
    251. D(C  17,N  16,C  11,C  13)    -14.0034         0.015385   
    252. D(H  18,C  17,N  16,C  11)     -1.7500         0.024471   
    253. D(H  18,C  17,N  16,C  29)   -179.4622         0.024471   
    254. D(N  19,C  17,N  16,C  11)    177.5425         0.024471   
    255. D(N  19,C  17,N  16,C  29)     -0.1696         0.024471   
    256. D(C  20,N  19,C  17,N  16)     -0.0721         0.051158   
    257. D(C  20,N  19,C  17,H  18)    179.1845         0.051158   
    258. D(C  21,C  20,N  19,C  17)   -177.3103         0.023488   
    259. D(C  29,C  20,N  19,C  17)      0.2875         0.023488   
    260. D(N  22,C  21,C  20,N  19)     -1.8193         0.022003   
    261. D(N  22,C  21,C  20,C  29)   -179.2881         0.022003   
    262. D(N  25,C  21,C  20,N  19)    178.8340         0.022003   
    263. D(N  25,C  21,C  20,C  29)      1.3652         0.022003   
    264. D(H  23,N  22,C  21,C  20)     13.6702         0.027945   
    265. D(H  23,N  22,C  21,N  25)   -166.9844         0.027945   
    266. D(H  24,N  22,C  21,C  20)    167.3708         0.027945   
    267. D(H  24,N  22,C  21,N  25)    -13.2838         0.027945   
    268. D(C  26,N  25,C  21,C  20)     -0.2336         0.036334   
    269. D(C  26,N  25,C  21,N  22)   -179.5960         0.036334   
    270. D(H  27,C  26,N  25,C  21)    179.9565         0.030036   
    271. D(N  28,C  26,N  25,C  21)     -0.7069         0.030036   
    272. D(C  29,N  28,C  26,N  25)      0.3463         0.038097   
    273. D(C  29,N  28,C  26,H  27)    179.6777         0.038097   
    274. D(C  20,C  29,N  16,C  11)   -177.5198         0.028692   
    275. D(C  20,C  29,N  16,C  17)      0.3334         0.028692   
    276. D(N  28,C  29,N  16,C  11)      1.9457         0.028692   
    277. D(N  28,C  29,N  16,C  17)    179.7990         0.028692   
    278. D(N  16,C  29,C  20,N  19)     -0.3915         0.025764   
    279. D(N  16,C  29,C  20,C  21)    177.6743         0.025764   
    280. D(N  28,C  29,C  20,N  19)   -179.8865         0.025764   
    281. D(N  28,C  29,C  20,C  21)     -1.8207         0.025764   
    282. D(N  16,C  29,N  28,C  26)   -178.3968         0.031795   
    283. D(C  20,C  29,N  28,C  26)      0.9785         0.031795   
    284. D(C  13,C  30,C   5,C   2)    -86.1181         0.007844   
    285. D(C  13,C  30,C   5,H   6)    158.6464         0.007844   
    286. D(C  13,C  30,C   5,O   7)     42.3409         0.007844   
    287. D(H  31,C  30,C   5,C   2)     28.4742         0.007844   
    288. D(H  31,C  30,C   5,H   6)    -86.7613         0.007844   
    289. D(H  31,C  30,C  13,C  11)   -158.4537         0.009033   
    290. D(O  32,C  30,C   5,C   2)    143.6985         0.007844   
    291. D(O  32,C  30,C   5,H   6)     28.4630         0.007844   
    292. D(O  32,C  30,C   5,O   7)    -87.8425         0.007844   
    293. D(C   5,C  30,C  13,C  11)    -44.1154         0.009033   
    294. D(C   5,C  30,C  13,H  14)     75.6414         0.009033   
    295. D(H  31,C  30,C   5,O   7)    156.9332         0.007844   
    296. D(C   5,C  30,C  13,H  15)   -165.1270         0.009033   
    297. D(H  31,C  30,C  13,H  14)    -38.6969         0.009033   
    298. D(H  31,C  30,C  13,H  15)     80.5347         0.009033   
    299. D(O  32,C  30,C  13,C  11)     83.0448         0.009033   
    300. D(O  32,C  30,C  13,H  14)   -157.1984         0.009033   
    301. D(O  32,C  30,C  13,H  15)    -37.9668         0.009033   
    302. D(P  33,O  32,C  30,C   5)     99.0342         0.024160   
    303. D(P  33,O  32,C  30,C  13)    -28.5187         0.024160   
    304. D(P  33,O  32,C  30,H  31)   -146.5443         0.024160   
    305. D(O  34,P  33,O  32,C  30)   -175.6010         0.012595   
    306. D(O  35,P  33,O  32,C  30)     46.5692         0.012595   
    307. D(O  36,P  33,O  32,C  30)    -62.1931         0.012595   
    308. D(C  37,O  36,P  33,O  32)    -88.1448         0.012182   
    309. D(C  37,O  36,P  33,O  34)     22.8953         0.012182   
    310. D(C  37,O  36,P  33,O  35)    158.4663         0.012182   
    311. D(H  38,C  37,O  36,P  33)      5.6889         0.023432   
    312. D(H  39,C  37,O  36,P  33)    125.6141         0.023432   
    313. D(C  40,C  37,O  36,P  33)   -114.8562         0.023432   
    314. D(H  41,C  40,C  37,O  36)    173.0908         0.008168   
    315. D(H  41,C  40,C  37,H  38)     50.3012         0.008168   
    316. D(H  41,C  40,C  37,H  39)    -66.0635         0.008168   
    317. D(O  42,C  40,C  37,O  36)    -70.7986         0.008168   
    318. D(O  42,C  40,C  37,H  38)    166.4118         0.008168   
    319. D(O  42,C  40,C  37,H  39)     50.0470         0.008168   
    320. D(C  65,C  40,C  37,O  36)     56.5805         0.008168   
    321. D(C  65,C  40,C  37,H  38)    -66.2091         0.008168   
    322. D(C  65,C  40,C  37,H  39)    177.4262         0.008168   
    323. D(C  43,O  42,C  40,C  37)     67.0390         0.020249   
    324. D(C  43,O  42,C  40,H  41)   -176.0518         0.020249   
    325. D(C  43,O  42,C  40,C  65)    -60.6440         0.020249   
    326. D(H  44,C  43,O  42,C  40)    -60.9182         0.020343   
    327. D(H  45,C  43,O  42,C  40)   -179.6124         0.020343   
    328. D(C  46,C  43,O  42,C  40)     61.5625         0.020343   
    329. D(N  51,C  46,C  43,H  44)    -53.2048         0.008851   
    330. D(H  47,C  46,C  43,H  44)   -168.6960         0.008851   
    331. D(H  47,C  46,C  43,H  45)    -50.7255         0.008851   
    332. D(C  48,C  46,C  43,O  42)    -53.0674         0.008851   
    333. D(C  48,C  46,C  43,H  44)     70.9510         0.008851   
    334. D(C  48,C  46,C  43,H  45)   -171.0784         0.008851   
    335. D(H  47,C  46,C  43,O  42)     67.2856         0.008851   
    336. D(N  51,C  46,C  43,O  42)   -177.2232         0.008851   
    337. D(N  51,C  46,C  43,H  45)     64.7657         0.008851   
    338. D(H  49,C  48,C  46,C  43)    -74.5613         0.009972   
    339. D(H  49,C  48,C  46,H  47)    166.0512         0.009972   
    340. D(H  49,C  48,C  46,N  51)     48.8891         0.009972   
    341. D(H  50,C  48,C  46,C  43)    167.6189         0.009972   
    342. D(H  50,C  48,C  46,H  47)     48.2314         0.009972   
    343. D(H  50,C  48,C  46,N  51)    -68.9307         0.009972   
    344. D(C  65,C  48,C  46,C  43)     45.8956         0.009972   
    345. D(C  65,C  48,C  46,H  47)    -73.4918         0.009972   
    346. D(C  65,C  48,C  46,N  51)    169.3460         0.009972   
    347. D(C  52,N  51,C  46,C  43)    -95.7932         0.015097   
    348. D(C  52,N  51,C  46,H  47)     20.7379         0.015097   
    349. D(C  52,N  51,C  46,C  48)    139.8843         0.015097   
    350. D(C  63,N  51,C  46,C  43)     78.7851         0.015097   
    351. D(C  63,N  51,C  46,H  47)   -164.6838         0.015097   
    352. D(C  63,N  51,C  46,C  48)    -45.5374         0.015097   
    353. D(O  53,C  52,N  51,C  46)     -2.8907         0.025055   
    354. D(O  53,C  52,N  51,C  63)   -177.4907         0.025055   
    355. D(N  54,C  52,N  51,C  46)    177.6374         0.025055   
    356. D(N  54,C  52,N  51,C  63)      3.0374         0.025055   
    357. D(H  55,N  54,C  52,N  51)   -178.2740         0.024605   
    358. D(H  55,N  54,C  52,O  53)      2.2439         0.024605   
    359. D(C  56,N  54,C  52,N  51)     -1.4093         0.024605   
    360. D(C  56,N  54,C  52,O  53)    179.1085         0.024605   
    361. D(O  57,C  56,N  54,C  52)   -179.5725         0.020638   
    362. D(O  57,C  56,N  54,H  55)     -2.7602         0.020638   
    363. D(C  58,C  56,N  54,C  52)      0.1325         0.020638   
    364. D(C  58,C  56,N  54,H  55)    176.9447         0.020638   
    365. D(C  59,C  58,C  56,N  54)    179.8961         0.013053   
    366. D(C  59,C  58,C  56,O  57)     -0.4199         0.013053   
    367. D(C  63,C  58,C  56,N  54)     -0.4436         0.013053   
    368. D(C  63,C  58,C  56,O  57)    179.2404         0.013053   
    369. D(H  60,C  59,C  58,C  56)    176.8418         0.011554   
    370. D(H  60,C  59,C  58,C  63)     -2.8089         0.011554   
    371. D(H  61,C  59,C  58,C  56)    -63.3478         0.011554   
    372. D(H  61,C  59,C  58,C  63)    117.0015         0.011554   
    373. D(H  62,C  59,C  58,C  56)     56.1326         0.011554   
    374. D(H  62,C  59,C  58,C  63)   -123.5181         0.011554   
    375. D(C  58,C  63,N  51,C  46)   -178.0103         0.025063   
    376. D(C  58,C  63,N  51,C  52)     -3.6721         0.025063   
    377. D(H  64,C  63,N  51,C  46)      2.7148         0.025063   
    378. D(H  64,C  63,N  51,C  52)    177.0530         0.025063   
    379. D(N  51,C  63,C  58,C  56)      2.2125         0.044005   
    380. D(N  51,C  63,C  58,C  59)   -178.1426         0.044005   
    381. D(H  64,C  63,C  58,C  56)   -178.5173         0.044005   
    382. D(H  64,C  63,C  58,C  59)      1.1276         0.044005   
    383. D(O  67,C  65,C  48,H  50)    -46.8538         0.009388   
    384. D(C  48,C  65,C  40,H  41)    165.8435         0.008748   
    385. D(C  48,C  65,C  40,O  42)     50.9517         0.008748   
    386. D(H  66,C  65,C  48,H  49)    -41.2925         0.009388   
    387. D(H  66,C  65,C  40,H  41)    -76.0960         0.008748   
    388. D(H  66,C  65,C  40,O  42)    169.0123         0.008748   
    389. D(O  67,C  65,C  40,C  37)    160.0066         0.008748   
    390. D(O  67,C  65,C  40,H  41)     43.1854         0.008748   
    391. D(O  67,C  65,C  40,O  42)    -71.7064         0.008748   
    392. D(C  40,C  65,C  48,C  46)    -44.8403         0.009388   
    393. D(C  40,C  65,C  48,H  49)     76.9988         0.009388   
    394. D(C  40,C  65,C  48,H  50)   -166.5562         0.009388   
    395. D(H  66,C  65,C  40,C  37)     40.7252         0.008748   
    396. D(H  66,C  65,C  48,C  46)   -163.1316         0.009388   
    397. D(H  66,C  65,C  48,H  50)     75.1525         0.009388   
    398. D(O  67,C  65,C  48,C  46)     74.8620         0.009388   
    399. D(C  48,C  65,C  40,C  37)    -77.3353         0.008748   
    400. D(O  67,C  65,C  48,H  49)   -163.2988         0.009388   
    401. D(H  68,O  67,C  65,C  40)    154.9860         0.018283 C 
    402. D(H  68,O  67,C  65,C  48)     32.4596         0.018283   
    403. D(H  68,O  67,C  65,H  66)    -87.6366         0.018283   
    -----------------------------------------------------------------

Number of atoms                         .... 69
Number of degrees of freedom            .... 403

         *************************************************************
         *                GEOMETRY OPTIMIZATION CYCLE   1            *
         *************************************************************
---------------------------------
CARTESIAN COORDINATES (ANGSTROEM)
---------------------------------
  H      2.428698   -2.363158   -2.879040
  O      2.274819   -1.909847   -2.031496
  C      1.484916   -2.744578   -1.181050
  H      0.851797   -3.416829   -1.768822
  H      2.125059   -3.362730   -0.540954
  C      0.531986   -1.903704   -0.252146
  H     -0.211742   -2.602384    0.141108
  O      1.213422   -1.400336    0.879733
  C      2.046031   -0.281054    0.644252
  H      2.861346   -0.518424   -0.048197
  H      2.471761    0.012604    1.607737
  C      1.211414    0.906049    0.072070
  H      0.438071    1.161826    0.796748
  C      0.543299    0.489242   -1.251259
  H      1.306142    0.304135   -1.995881
  H     -0.124414    1.276224   -1.586451
  N      2.069658    2.079472   -0.109020
  C      2.542085    2.655260   -1.285940
  H      2.313332    2.228108   -2.254768
  N      3.246073    3.728685   -1.077192
  C      3.256851    3.900118    0.310308
  C      3.794815    4.885455    1.174397
  N      4.516108    5.952898    0.691642
  H      4.479404    6.137543   -0.299277
  H      4.705566    6.716539    1.321892
  N      3.607487    4.766668    2.486062
  C      2.902883    3.707210    2.949466
  H      2.778778    3.656415    4.032268
  N      2.341584    2.739865    2.240063
  C      2.529995    2.871541    0.912863
  C     -0.276172   -0.829126   -1.086939
  H     -0.376024   -1.250299   -2.091515
  O     -1.566026   -0.687775   -0.576283
  P     -2.201738    0.406579    0.411645
  O     -3.537483   -0.018270    0.663501
  O     -1.818351    1.720798   -0.010882
  O     -1.309433    0.149409    1.727292
  C     -1.608031   -0.777917    2.730501
  H     -2.479143   -1.385918    2.463373
  H     -0.752649   -1.446831    2.881583
  C     -1.920728   -0.092281    4.115051
  H     -2.260326   -0.879193    4.792943
  O     -0.776856    0.476132    4.729590
  C     -0.236480    1.586826    4.035457
  H      0.089173    1.319755    3.025887
  H      0.635641    1.930114    4.595902
  C     -1.273296    2.754886    3.952280
  H     -1.428125    3.136235    4.959219
  C     -2.622869    2.278080    3.367388
  H     -2.540396    2.126569    2.301076
  H     -3.376774    3.041303    3.524151
  N     -0.717313    3.867651    3.173486
  C     -0.113133    4.904570    3.895206
  O     -0.076019    4.947111    5.107555
  N      0.446940    5.915896    3.100711
  H      0.910712    6.657753    3.608174
  C      0.485211    5.975596    1.687527
  O      1.012194    6.912289    1.125966
  C     -0.160465    4.805396    1.035401
  C     -0.183429    4.758859   -0.479005
  H     -0.635711    3.822510   -0.798662
  H     -0.763739    5.585291   -0.878494
  H      0.821289    4.833956   -0.882906
  C     -0.686548    3.842013    1.784350
  H     -1.137839    2.972348    1.278115
  C     -3.091712    0.941978    4.010501
  H     -3.863842    0.513957    3.359184
  O     -3.593195    1.134981    5.336765
  H     -4.014537    2.010955    5.389793

----------------------------
CARTESIAN COORDINATES (A.U.)
----------------------------
  NO LB      ZA    FRAG     MASS         X           Y           Z
   0 H     1.0000    0     1.008    4.589574   -4.465721   -5.440598
   1 O     8.0000    0    15.999    4.298784   -3.609087   -3.838971
   2 C     6.0000    0    12.011    2.806085   -5.186501   -2.231861
   3 H     1.0000    0     1.008    1.609663   -6.456870   -3.342589
   4 H     1.0000    0     1.008    4.015779   -6.354638   -1.022255
   5 C     6.0000    0    12.011    1.005308   -3.597479   -0.476487
   6 H     1.0000    0     1.008   -0.400134   -4.917793    0.266656
   7 O     8.0000    0    15.999    2.293035   -2.646251    1.662455
   8 C     6.0000    0    12.011    3.866439   -0.531116    1.217459
   9 H     1.0000    0     1.008    5.407160   -0.979679   -0.091080
  10 H     1.0000    0     1.008    4.670951    0.023818    3.038182
  11 C     6.0000    0    12.011    2.289240    1.712185    0.136193
  12 H     1.0000    0     1.008    0.827835    2.195532    1.505636
  13 C     6.0000    0    12.011    1.026687    0.924534   -2.364538
  14 H     1.0000    0     1.008    2.468250    0.574731   -3.771669
  15 H     1.0000    0     1.008   -0.235107    2.411715   -2.997959
  16 N     7.0000    0    14.007    3.911086    3.929632   -0.206018
  17 C     6.0000    0    12.011    4.803845    5.017715   -2.430075
  18 H     1.0000    0     1.008    4.371563    4.210513   -4.260895
  19 N     7.0000    0    14.007    6.134190    7.046194   -2.035597
  20 C     6.0000    0    12.011    6.154557    7.370155    0.586398
  21 C     6.0000    0    12.011    7.171160    9.232171    2.219289
  22 N     7.0000    0    14.007    8.534207   11.249347    1.307014
  23 H     1.0000    0     1.008    8.464846   11.598275   -0.565552
  24 H     1.0000    0     1.008    8.892231   12.692419    2.498013
  25 N     7.0000    0    14.007    6.817162    9.007698    4.697975
  26 C     6.0000    0    12.011    5.485653    7.005612    5.573683
  27 H     1.0000    0     1.008    5.251130    6.909623    7.619883
  28 N     7.0000    0    14.007    4.424953    5.177595    4.233107
  29 C     6.0000    0    12.011    4.780997    5.426427    1.725061
  30 C     6.0000    0    12.011   -0.521890   -1.566822   -2.054017
  31 H     1.0000    0     1.008   -0.710583   -2.362722   -3.952391
  32 O     8.0000    0    15.999   -2.959361   -1.299706   -1.089017
  33 P    15.0000    0    30.974   -4.160682    0.768324    0.777897
  34 O     8.0000    0    15.999   -6.684873   -0.034526    1.253835
  35 O     8.0000    0    15.999   -3.436185    3.251837   -0.020564
  36 O     8.0000    0    15.999   -2.474470    0.282343    3.264108
  37 C     6.0000    0    12.011   -3.038738   -1.470050    5.159899
  38 H     1.0000    0     1.008   -4.684901   -2.619006    4.655100
  39 H     1.0000    0     1.008   -1.422300   -2.734115    5.445403
  40 C     6.0000    0    12.011   -3.629650   -0.174386    7.776319
  41 H     1.0000    0     1.008   -4.271396   -1.661433    9.057349
  42 O     8.0000    0    15.999   -1.468044    0.899760    8.937630
  43 C     6.0000    0    12.011   -0.446882    2.998666    7.625908
  44 H     1.0000    0     1.008    0.168512    2.493975    5.718098
  45 H     1.0000    0     1.008    1.201187    3.647387    8.684997
  46 C     6.0000    0    12.011   -2.406181    5.205980    7.468726
  47 H     1.0000    0     1.008   -2.698765    5.926626    9.371566
  48 C     6.0000    0    12.011   -4.956504    4.304948    6.363442
  49 H     1.0000    0     1.008   -4.800654    4.018632    4.348403
  50 H     1.0000    0     1.008   -6.381178    5.747230    6.659681
  51 N     7.0000    0    14.007   -1.355525    7.308800    5.997020
  52 C     6.0000    0    12.011   -0.213791    9.268295    7.360872
  53 O     8.0000    0    15.999   -0.143655    9.348685    9.651881
  54 N     7.0000    0    14.007    0.844595   11.179424    5.859494
  55 H     1.0000    0     1.008    1.720996   12.581329    6.818462
  56 C     6.0000    0    12.011    0.916916   11.292239    3.188963
  57 O     8.0000    0    15.999    1.912769   13.062334    2.127767
  58 C     6.0000    0    12.011   -0.303235    9.080882    1.956623
  59 C     6.0000    0    12.011   -0.346631    8.992940   -0.905188
  60 H     1.0000    0     1.008   -1.201319    7.223497   -1.509252
  61 H     1.0000    0     1.008   -1.443257   10.554670   -1.660113
  62 H     1.0000    0     1.008    1.552012    9.134853   -1.668451
  63 C     6.0000    0    12.011   -1.297388    7.260353    3.371933
  64 H     1.0000    0     1.008   -2.150205    5.616923    2.415287
  65 C     6.0000    0    12.011   -5.842490    1.780080    7.578749
  66 H     1.0000    0     1.008   -7.301603    0.971239    6.347938
  67 O     8.0000    0    15.999   -6.790154    2.144803   10.085024
  68 H     1.0000    0     1.008   -7.586375    3.800153   10.185233

--------------------------------
INTERNAL COORDINATES (ANGSTROEM)
--------------------------------
 H      0   0   0     0.000000000000     0.00000000     0.00000000
 O      1   0   0     0.973396583485     0.00000000     0.00000000
 C      2   1   0     1.429678417834   109.47410668     0.00000000
 H      3   2   1     1.094639910942   111.02130140   332.65198724
 H      3   2   1     1.096182709769   110.72914089    92.30752066
 C      3   2   1     1.574168895640   111.93760878   212.96763873
 H      6   3   2     1.093588021203   106.41616636   164.42237105
 O      6   3   2     1.413819548955   111.76682373   279.11603132
 C      8   6   3     1.414737163149   115.59976647    76.74020071
 H      9   8   6     1.095704434657   111.82167890   297.38122315
 H      9   8   6     1.093519017398   107.15334549   178.02015029
 C      9   8   6     1.559869761224   110.38060946    59.34155011
 H     12   9   8     1.090246699708   108.31567242    59.48042213
 C     12   9   8     1.539904497404   109.96096487   300.36036884
 H     14  12   9     1.081968076288   109.37977897   294.54119282
 H     14  12   9     1.085142851735   109.64050977   173.59601469
 N     12   9   8     1.465024259012   109.96488337   177.34890464
 C     17  12   9     1.392789366285   129.36662619   108.16346203
 H     18  17  12     1.083243047970   121.40674890   358.24995751
 N     18  17  12     1.300544517578   112.90398357   177.54253949
 C     20  18  17     1.398092096567   105.34740243   359.92789865
 C     21  20  18     1.416666101980   133.91076862   182.68968612
 N     22  21  20     1.375773080217   121.64911863   358.18074524
 H     23  22  21     1.008643759669   117.88435587    13.67022204
 H     23  22  21     1.008095363169   117.83295681   167.37081842
 N     22  21  20     1.330287751701   119.06658921   178.83404630
 C     26  22  21     1.354127713909   118.72204103   359.76636966
 H     27  26  22     1.091074139928   115.80007196   179.95653200
 N     27  26  22     1.324411089383   127.49389564   359.29311788
 C     29  27  26     1.346958820667   113.39669698     0.34632136
 C     14  12   9     1.560970843911   111.46362783    53.08568954
 H     31  14  12     1.093860427500   106.04773974   201.54627808
 O     31  14  12     1.394443813230   116.01054440    83.04482202
 P     33  31  14     1.605535121298   131.35197160   331.48131623
 O     34  33  31     1.424128361925   106.07264224   184.39898317
 O     34  33  31     1.432719687102   109.74382649    46.56917826
 O     34  33  31     1.610363166815   100.04757916   297.80687838
 C     37  34  33     1.398400440399   125.00788442   271.85519056
 H     38  37  34     1.095381256789   111.28074169     5.68894102
 H     38  37  34     1.096335035098   109.68603318   125.61408894
 C     38  37  34     1.576341757660   112.58400062   245.14382000
 H     41  38  37     1.092745966173   107.05598752   173.09084792
 O     41  38  37     1.417461125911   113.27462714   289.20136066
 C     43  41  38     1.416851019616   114.18813686    67.03902034
 H     44  43  41     1.093895858683   111.98080754   299.08184860
 H     44  43  41     1.092035104934   107.43283234   180.38757926
 C     44  43  41     1.564056031644   111.01846606    61.56249697
 H     47  44  43     1.087807977045   107.87448937    67.28558200
 C     47  44  43     1.546217371272   111.61807688   306.93261412
 H     49  47  44     1.080175955762   110.48917769   285.43865308
 H     49  47  44     1.084184814789   109.58205059   167.61887272
 N     47  44  43     1.467610730710   110.08023348   182.77679670
 C     52  47  44     1.400398149002   116.83216692   264.20678224
 O     53  52  47     1.213663148395   123.63887704   357.10931145
 N     53  52  47     1.402741794776   114.46871974   177.63739423
 H     55  53  52     1.011412021908   115.32293458   181.72604594
 C     55  53  52     1.414962166286   127.36521215   358.59066748
 O     57  55  53     1.212623588907   120.45484564   180.42754235
 C     57  55  53     1.487122820096   113.14259345     0.13247922
 C     59  57  55     1.515294100776   117.96970448   179.89614515
 H     60  59  57     1.087882572864   109.05017891   176.84177910
 H     60  59  57     1.085974136098   110.63256742   296.65219084
 H     60  59  57     1.085465518348   110.83813143    56.13259144
 C     59  57  55     1.328832117695   119.68417986   359.55642711
 H     64  59  57     1.102840133423   118.35868997   181.48272799
 C     49  47  44     1.555177984932   111.81645577    45.89560906
 H     66  49  47     1.097086687768   107.56913322   196.86837160
 O     66  49  47     1.430982223302   111.90339974    74.86202067
 H     68  66  49     0.973483823349   108.87659735    32.45961579

---------------------------
INTERNAL COORDINATES (A.U.)
---------------------------
 H      0   0   0     0.000000000000     0.00000000     0.00000000
 O      1   0   0     1.839452962482     0.00000000     0.00000000
 C      2   1   0     2.701700669284   109.47410668     0.00000000
 H      3   2   1     2.068569646941   111.02130140   332.65198724
 H      3   2   1     2.071485114203   110.72914089    92.30752066
 C      3   2   1     2.974748101297   111.93760878   212.96763873
 H      6   3   2     2.066581863410   106.41616636   164.42237105
 O      6   3   2     2.671731750310   111.76682373   279.11603132
 C      8   6   3     2.673465789832   115.59976647    76.74020071
 H      9   8   6     2.070581305224   111.82167890   297.38122315
 H      9   8   6     2.066451465117   107.15334549   178.02015029
 C      9   8   6     2.947726653299   110.38060946    59.34155011
 H     12   9   8     2.060267680860   108.31567242    59.48042213
 C     12   9   8     2.909997772488   109.96096487   300.36036884
 H     14  12   9     2.044623349830   109.37977897   294.54119282
 H     14  12   9     2.050622805962   109.64050977   173.59601469
 N     12   9   8     2.768494629083   109.96488337   177.34890464
 C     17  12   9     2.631990464517   129.36662619   108.16346203
 H     18  17  12     2.047032697138   121.40674890   358.24995751
 N     18  17  12     2.457672963195   112.90398357   177.54253949
 C     20  18  17     2.642011172511   105.34740243   359.92789865
 C     21  20  18     2.677110955952   133.91076862   182.68968612
 N     22  21  20     2.599834344031   121.64911863   358.18074524
 H     23  22  21     1.906060472462   117.88435587    13.67022204
 H     23  22  21     1.905024153266   117.83295681   167.37081842
 N     22  21  20     2.513879530024   119.06658921   178.83404630
 C     26  22  21     2.558930529642   118.72204103   359.76636966
 H     27  26  22     2.061831316268   115.80007196   179.95653200
 N     27  26  22     2.502774247663   127.49389564   359.29311788
 C     29  27  26     2.545383284730   113.39669698     0.34632136
 C     14  12   9     2.949807398028   111.46362783    53.08568954
 H     31  14  12     2.067096636710   106.04773974   201.54627808
 O     31  14  12     2.635116916146   116.01054440    83.04482202
 P     33  31  14     3.034021677645   131.35197160   331.48131623
 O     34  33  31     2.691212583589   106.07264224   184.39898317
 O     34  33  31     2.707447835300   109.74382649    46.56917826
 O     34  33  31     3.043145361434   100.04757916   297.80687838
 C     37  34  33     2.642593857909   125.00788442   271.85519056
 H     38  37  34     2.069970587561   111.28074169     5.68894102
 H     38  37  34     2.071772967358   109.68603318   125.61408894
 C     38  37  34     2.978854215441   112.58400062   245.14382000
 H     41  38  37     2.064990610015   107.05598752   173.09084792
 O     41  38  37     2.678613333451   113.27462714   289.20136066
 C     43  41  38     2.677460399642   114.18813686    67.03902034
 H     44  43  41     2.067163591942   111.98080754   299.08184860
 H     44  43  41     2.063647276954   107.43283234   180.38757926
 C     44  43  41     2.955637557915   111.01846606    61.56249697
 H     47  44  43     2.055659162911   107.87448937    67.28558200
 C     47  44  43     2.921927375215   111.61807688   306.93261412
 H     49  47  44     2.041236732836   110.48917769   285.43865308
 H     49  47  44     2.048812378507   109.58205059   167.61887272
 N     47  44  43     2.773382352247   110.08023348   182.77679670
 C     52  47  44     2.646368980065   116.83216692   264.20678224
 O     53  52  47     2.293490969298   123.63887704   357.10931145
 N     53  52  47     2.650797828732   114.46871974   177.63739423
 H     55  53  52     1.911291729961   115.32293458   181.72604594
 C     55  53  52     2.673890984140   127.36521215   358.59066748
 O     57  55  53     2.291526486568   120.45484564   180.42754235
 C     57  55  53     2.810254857487   113.14259345     0.13247922
 C     59  57  55     2.863490862814   117.96970448   179.89614515
 H     60  59  57     2.055800128579   109.05017891   176.84177910
 H     60  59  57     2.052193705746   110.63256742   296.65219084
 H     60  59  57     2.051232557492   110.83813143    56.13259144
 C     59  57  55     2.511128780403   119.68417986   359.55642711
 H     64  59  57     2.084065821666   118.35868997   181.48272799
 C     49  47  44     2.938860481025   111.81645577    45.89560906
 H     66  49  47     2.073193385053   107.56913322   196.86837160
 O     66  49  47     2.704164504550   111.90339974    74.86202067
 H     68  66  49     1.839617821932   108.87659735    32.45961579

---------------------
BASIS SET INFORMATION
---------------------
There are 5 groups of distinct atoms

 Group   1 Type H   : 4s1p contracted to 2s1p pattern {31/1}
 Group   2 Type O   : 8s5p1d contracted to 4s3p1d pattern {5111/311/1}
 Group   3 Type C   : 8s5p1d contracted to 4s3p1d pattern {5111/311/1}
 Group   4 Type N   : 8s5p1d contracted to 4s3p1d pattern {5111/311/1}
 Group   5 Type P   : 11s8p1d contracted to 5s4p1d pattern {53111/5111/1}

Atom   0H    basis set group =>   1
Atom   1O    basis set group =>   2
Atom   2C    basis set group =>   3
Atom   3H    basis set group =>   1
Atom   4H    basis set group =>   1
Atom   5C    basis set group =>   3
Atom   6H    basis set group =>   1
Atom   7O    basis set group =>   2
Atom   8C    basis set group =>   3
Atom   9H    basis set group =>   1
Atom  10H    basis set group =>   1
Atom  11C    basis set group =>   3
Atom  12H    basis set group =>   1
Atom  13C    basis set group =>   3
Atom  14H    basis set group =>   1
Atom  15H    basis set group =>   1
Atom  16N    basis set group =>   4
Atom  17C    basis set group =>   3
Atom  18H    basis set group =>   1
Atom  19N    basis set group =>   4
Atom  20C    basis set group =>   3
Atom  21C    basis set group =>   3
Atom  22N    basis set group =>   4
Atom  23H    basis set group =>   1
Atom  24H    basis set group =>   1
Atom  25N    basis set group =>   4
Atom  26C    basis set group =>   3
Atom  27H    basis set group =>   1
Atom  28N    basis set group =>   4
Atom  29C    basis set group =>   3
Atom  30C    basis set group =>   3
Atom  31H    basis set group =>   1
Atom  32O    basis set group =>   2
Atom  33P    basis set group =>   5
Atom  34O    basis set group =>   2
Atom  35O    basis set group =>   2
Atom  36O    basis set group =>   2
Atom  37C    basis set group =>   3
Atom  38H    basis set group =>   1
Atom  39H    basis set group =>   1
Atom  40C    basis set group =>   3
Atom  41H    basis set group =>   1
Atom  42O    basis set group =>   2
Atom  43C    basis set group =>   3
Atom  44H    basis set group =>   1
Atom  45H    basis set group =>   1
Atom  46C    basis set group =>   3
Atom  47H    basis set group =>   1
Atom  48C    basis set group =>   3
Atom  49H    basis set group =>   1
Atom  50H    basis set group =>   1
Atom  51N    basis set group =>   4
Atom  52C    basis set group =>   3
Atom  53O    basis set group =>   2
Atom  54N    basis set group =>   4
Atom  55H    basis set group =>   1
Atom  56C    basis set group =>   3
Atom  57O    basis set group =>   2
Atom  58C    basis set group =>   3
Atom  59C    basis set group =>   3
Atom  60H    basis set group =>   1
Atom  61H    basis set group =>   1
Atom  62H    basis set group =>   1
Atom  63C    basis set group =>   3
Atom  64H    basis set group =>   1
Atom  65C    basis set group =>   3
Atom  66H    basis set group =>   1
Atom  67O    basis set group =>   2
Atom  68H    basis set group =>   1


           ************************************************************
           *        Program running with 16 parallel MPI-processes    *
           *              working on a common directory               *
           ************************************************************
------------------------------------------------------------------------------
                           ORCA GTO INTEGRAL CALCULATION
------------------------------------------------------------------------------

                         BASIS SET STATISTICS AND STARTUP INFO

 # of primitive gaussian shells          ...  711
 # of primitive gaussian functions       ... 1335
 # of contracted shells                  ...  409
 # of contracted basis functions         ...  869
 Highest angular momentum                ...    2
 Maximum contraction depth               ...    5
 Integral package used                   ... LIBINT
 Integral threshhold            Thresh   ...  1.000e-12
 Primitive cut-off              TCut     ...  1.000e-14


------------------------------ INTEGRAL EVALUATION ----------------------------


 * One electron integrals 
 Pre-screening matrix                    ... done
 Shell pair data                         ... done (   0.038 sec)



           ************************************************************
           *        Program running with 16 parallel MPI-processes    *
           *              working on a common directory               *
           ************************************************************
-------------------------------------------------------------------------------
                                 ORCA SCF
-------------------------------------------------------------------------------

------------
SCF SETTINGS
------------
Hamiltonian:
 Density Functional     Method          .... DFT(GTOs)
 Exchange Functional    Exchange        .... WB97X-D3
 Correlation Functional Correlation     .... WB97X-D3
 Gradients option       PostSCFGGA      .... off
 Hybrid DFT is turned on
   Fraction HF Exchange ScalHFX         ....  0.195728
   Scaling of DF-GGA-X  ScalDFX         ....  0.000000
   Scaling of DF-GGA-C  ScalDFC         ....  1.000000
   Scaling of DF-LDA-C  ScalLDAC        ....  1.000000
   Perturbative correction              ....  0.000000
   Density functional embedding theory  .... OFF
 Long-range corrected/Screened/Range-Separated Hybrid DFT is turned on
   Amount of maximum screened exact exchange              ....  0.804272
   Range separation parameter mu (erf(mu*r12)/r12)        ....  0.250000


General Settings:
 Integral files         IntName         .... BtypeDuplex
 Hartree-Fock type      HFTyp           .... RHF
 Total Charge           Charge          ....   -1
 Multiplicity           Mult            ....    1
 Number of Electrons    NEL             ....  306
 Basis Dimension        Dim             ....  869
 Nuclear Repulsion      ENuc            ....   5755.1379250012 Eh

Convergence Acceleration:
 DIIS                   CNVDIIS         .... on
   Start iteration      DIISMaxIt       ....    12
   Startup error        DIISStart       ....  0.200000
   # of expansion vecs  DIISMaxEq       ....     5
   Bias factor          DIISBfac        ....   1.050
   Max. coefficient     DIISMaxC        ....  10.000
 Newton-Raphson         CNVNR           .... off
 SOSCF                  CNVSOSCF        .... on
   Start iteration      SOSCFMaxIt      ....   150
   Startup grad/error   SOSCFStart      ....  0.003300
 Level Shifting         CNVShift        .... on
   Level shift para.    LevelShift      ....    0.2500
   Turn off err/grad.   ShiftErr        ....    0.0010
 Zerner damping         CNVZerner       .... off
 Static damping         CNVDamp         .... on
   Fraction old density DampFac         ....    0.7000
   Max. Damping (<1)    DampMax         ....    0.9800
   Min. Damping (>=0)   DampMin         ....    0.0000
   Turn off err/grad.   DampErr         ....    0.1000
 Fernandez-Rico         CNVRico         .... off

SCF Procedure:
 Maximum # iterations   MaxIter         ....   125
 SCF integral mode      SCFMode         .... Direct
   Integral package                     .... LIBINT
 Reset frequency        DirectResetFreq ....    20
 Integral Threshold     Thresh          ....  1.000e-12 Eh
 Primitive CutOff       TCut            ....  1.000e-14 Eh

Convergence Tolerance:
 Convergence Check Mode ConvCheckMode   .... Total+1el-Energy
 Convergence forced     ConvForced      .... 0
 Energy Change          TolE            ....  1.000e-09 Eh
 1-El. energy change                    ....  1.000e-06 Eh
 Orbital Gradient       TolG            ....  2.000e-06
 Orbital Rotation angle TolX            ....  2.000e-06
 DIIS Error             TolErr          ....  1.000e-08


Diagonalization of the overlap matrix:
Smallest eigenvalue                        ... 1.512e-06
Time for diagonalization                   ...    0.246 sec
Threshold for overlap eigenvalues          ... 1.000e-08
Number of eigenvalues below threshold      ... 0
Time for construction of square roots      ...    0.119 sec
Total time needed                          ...    0.370 sec

-------------------
DFT GRID GENERATION
-------------------

General Integration Accuracy     IntAcc      ...  4.340
Radial Grid Type                 RadialGrid  ... Gauss-Chebyshev
Angular Grid (max. acc.)         AngularGrid ... Lebedev-110
Angular grid pruning method      GridPruning ... 3 (G Style)
Weight generation scheme         WeightScheme... Becke
Basis function cutoff            BFCut       ...    1.0000e-12
Integration weight cutoff        WCut        ...    1.0000e-14
Grids for H and He will be reduced by one unit

# of grid points (after initial pruning)     ...  90338 (   0.0 sec)
# of grid points (after weights+screening)   ...  77758 (   0.5 sec)
nearest neighbour list constructed           ...    0.0 sec
Grid point re-assignment to atoms done       ...    0.0 sec
Grid point division into batches done        ...    0.1 sec
Reduced shell lists constructed in    0.2 sec

Total number of grid points                  ...    77758
Total number of batches                      ...     1250
Average number of points per batch           ...       62
Average number of grid points per atom       ...     1127
Average number of shells per batch           ...   169.54 (41.45%)
Average number of basis functions per batch  ...   330.09 (37.98%)
Average number of large shells per batch     ...   107.85 (63.61%)
Average number of large basis fcns per batch ...   211.65 (64.12%)
Maximum spatial batch extension              ...  19.49, 18.78, 16.09 au
Average spatial batch extension              ...   0.24,  0.23,  0.21 au

Time for grid setup =    0.917 sec

------------------------------
INITIAL GUESS: MODEL POTENTIAL
------------------------------
Loading Hartree-Fock densities                     ... done
Calculating cut-offs                               ... done
Setting up the integral package                    ... done
Initializing the effective Hamiltonian             ... done
Starting the Coulomb interaction                   ... done (   0.6 sec)
Reading the grid                                   ... done
Mapping shells                                     ... done
Starting the XC term evaluation                    ... done (   1.4 sec)
  promolecular density results
     # of electrons  =    305.001502253
     EX              =   -271.249954377
     EC              =    -10.534082916
     EX+EC           =   -281.784037293
Transforming the Hamiltonian                       ... done (   0.2 sec)
Diagonalizing the Hamiltonian                      ... done (   0.2 sec)
Back transforming the eigenvectors                 ... done (   0.0 sec)
Now organizing SCF variables                       ... done
                      ------------------
                      INITIAL GUESS DONE (   3.5 sec)
                      ------------------
--------------
SCF ITERATIONS
--------------
ITER       Energy         Delta-E        Max-DP      RMS-DP      [F,P]     Damp
               ***  Starting incremental Fock matrix formation  ***
  0  -2329.8370282296   0.000000000000 2.90183064  0.00836497  0.3297075 0.7000
  1  -2330.2627039426  -0.425675712977 1.58426928  0.00555424  0.1598787 0.7000
                               ***Turning on DIIS***
  2  -2330.4570246350  -0.194320692435 3.42924758  0.01245576  0.0573010 0.0000
  3  -2330.7812518538  -0.324227218730 3.00685085  0.00725034  0.0829903 0.0000
  4  -2330.8312681185  -0.050016264747 0.41473132  0.00121330  0.0120074 0.0000
  5  -2330.8327080289  -0.001439910425 0.26239588  0.00070201  0.0055637 0.0000
                      *** Initiating the SOSCF procedure ***
                           *** Shutting down DIIS ***
                      *** Re-Reading the Fockian *** 
                      *** Removing any level shift *** 
ITER      Energy       Delta-E        Grad      Rot      Max-DP    RMS-DP
  6  -2330.83293238  -0.0002243464  0.000762  0.000762  0.062114  0.000213
               *** Restarting incremental Fock matrix formation ***
  7  -2330.83297620  -0.0000438210  0.000416  0.001188  0.038740  0.000153
  8  -2330.83299068  -0.0000144853  0.000306  0.001494  0.031020  0.000131
  9  -2330.83299657  -0.0000058899  0.000103  0.000233  0.022396  0.000054
 10  -2330.83299747  -0.0000008966  0.000033  0.000037  0.008354  0.000024
 11  -2330.83299761  -0.0000001379  0.000013  0.000068  0.001917  0.000007
 12  -2330.83299765  -0.0000000464  0.000005  0.000025  0.001169  0.000004
 13  -2330.83299766  -0.0000000030  0.000003  0.000005  0.000699  0.000002
 14  -2330.83299766  -0.0000000014  0.000001  0.000003  0.000872  0.000003
 15  -2330.83299766   0.0000000002  0.000001  0.000002  0.000522  0.000002
                  ***Gradient check signals convergence***
              ***Rediagonalizing the Fockian in SOSCF/NRSCF***

               *****************************************************
               *                     SUCCESS                       *
               *           SCF CONVERGED AFTER  16 CYCLES          *
               *****************************************************

Setting up the final grid:

General Integration Accuracy     IntAcc      ...  4.670
Radial Grid Type                 RadialGrid  ... Gauss-Chebyshev
Angular Grid (max. acc.)         AngularGrid ... Lebedev-302
Angular grid pruning method      GridPruning ... 3 (G Style)
Weight generation scheme         WeightScheme... Becke
Basis function cutoff            BFCut       ...    1.0000e-12
Integration weight cutoff        WCut        ...    1.0000e-14
Grids for H and He will be reduced by one unit

# of grid points (after initial pruning)     ... 347540 (   0.0 sec)
# of grid points (after weights+screening)   ... 290267 (   1.9 sec)
nearest neighbour list constructed           ...    0.0 sec
Grid point re-assignment to atoms done       ...    0.1 sec
Grid point division into batches done        ...    1.6 sec
Reduced shell lists constructed in    2.4 sec

Total number of grid points                  ...   290267
Total number of batches                      ...     4573
Average number of points per batch           ...       63
Average number of grid points per atom       ...     4207
Average number of shells per batch           ...   155.68 (38.06%)
Average number of basis functions per batch  ...   301.43 (34.69%)
Average number of large shells per batch     ...    97.86 (62.86%)
Average number of large basis fcns per batch ...   191.22 (63.44%)
Maximum spatial batch extension              ...  20.52, 19.79, 18.04 au
Average spatial batch extension              ...   0.16,  0.15,  0.15 au

Final grid set up in    4.5 sec
Final integration                            ... done (   4.1 sec)
Change in XC energy                          ...     0.000748144
Integrated number of electrons               ...   305.998602641
Previous integrated no of electrons          ...   306.007384452

----------------
TOTAL SCF ENERGY
----------------

Total Energy       :        -2330.83224951 Eh          -63425.16998 eV

Components:
Nuclear Repulsion  :         5755.13792500 Eh          156605.26460 eV
Electronic Energy  :        -8085.97017451 Eh         -220030.43458 eV
One Electron Energy:       -14685.86524908 Eh         -399622.70985 eV
Two Electron Energy:         6599.89507457 Eh          179592.27527 eV

Virial components:
Potential Energy   :        -4640.94499499 Eh         -126286.53360 eV
Kinetic Energy     :         2310.11274548 Eh           62861.36361 eV
Virial Ratio       :            2.00896904


DFT components:
N(Alpha)           :      152.999301320686 electrons
N(Beta)            :      152.999301320686 electrons
N(Total)           :      305.998602641373 electrons
E(XC)              :     -200.725741782051 Eh       
DFET-embed. en.    :        0.000000000000 Eh       

---------------
SCF CONVERGENCE
---------------

  Last Energy change         ...   -3.1650e-10  Tolerance :   1.0000e-09
  Last MAX-Density change    ...    1.1099e-03  Tolerance :   1.0000e-08
  Last RMS-Density change    ...    3.3738e-06  Tolerance :   1.0000e-09
  Last Orbital Gradient      ...    1.6311e-07  Tolerance :   2.0000e-06
  Last Orbital Rotation      ...    5.6188e-07  Tolerance :   2.0000e-06

             **** THE GBW FILE WAS UPDATED (BtypeDuplex.gbw) ****
             **** DENSITY FILE WAS UPDATED (BtypeDuplex.scfp) ****
             **** ENERGY FILE WAS UPDATED (BtypeDuplex.en.tmp) ****
             **** THE GBW FILE WAS UPDATED (BtypeDuplex.gbw) ****
             **** DENSITY FILE WAS UPDATED (BtypeDuplex.scfp) ****
----------------
ORBITAL ENERGIES
----------------

  NO   OCC          E(Eh)            E(eV) 
   0   2.0000     -77.133427     -2098.9073 
   1   2.0000     -19.195744      -522.3428 
   2   2.0000     -19.168631      -521.6050 
   3   2.0000     -19.156230      -521.2675 
   4   2.0000     -19.148045      -521.0448 
   5   2.0000     -19.136812      -520.7391 
   6   2.0000     -19.135395      -520.7006 
   7   2.0000     -19.133796      -520.6571 
   8   2.0000     -19.133266      -520.6426 
   9   2.0000     -19.061376      -518.6864 
  10   2.0000     -19.049291      -518.3576 
  11   2.0000     -14.415859      -392.2755 
  12   2.0000     -14.399290      -391.8246 
  13   2.0000     -14.392512      -391.6402 
  14   2.0000     -14.376878      -391.2147 
  15   2.0000     -14.351345      -390.5199 
  16   2.0000     -14.349007      -390.4563 
  17   2.0000     -14.343870      -390.3165 
  18   2.0000     -10.350239      -281.6443 
  19   2.0000     -10.318092      -280.7696 
  20   2.0000     -10.305898      -280.4377 
  21   2.0000     -10.284365      -279.8518 
  22   2.0000     -10.280437      -279.7449 
  23   2.0000     -10.279073      -279.7078 
  24   2.0000     -10.276410      -279.6353 
  25   2.0000     -10.268049      -279.4078 
  26   2.0000     -10.266479      -279.3651 
  27   2.0000     -10.251578      -278.9596 
  28   2.0000     -10.246261      -278.8149 
  29   2.0000     -10.246192      -278.8130 
  30   2.0000     -10.243422      -278.7377 
  31   2.0000     -10.240980      -278.6712 
  32   2.0000     -10.236997      -278.5629 
  33   2.0000     -10.236334      -278.5448 
  34   2.0000     -10.235843      -278.5314 
  35   2.0000     -10.228975      -278.3446 
  36   2.0000     -10.202882      -277.6345 
  37   2.0000     -10.202169      -277.6151 
  38   2.0000     -10.195227      -277.4262 
  39   2.0000     -10.182835      -277.0890 
  40   2.0000      -6.629617      -180.4010 
  41   2.0000      -4.787769      -130.2818 
  42   2.0000      -4.786525      -130.2480 
  43   2.0000      -4.784992      -130.2063 
  44   2.0000      -1.093527       -29.7564 
  45   2.0000      -1.082155       -29.4469 
  46   2.0000      -1.074241       -29.2316 
  47   2.0000      -1.068720       -29.0814 
  48   2.0000      -1.064039       -28.9540 
  49   2.0000      -1.059827       -28.8394 
  50   2.0000      -1.051051       -28.6005 
  51   2.0000      -1.028741       -27.9935 
  52   2.0000      -1.018762       -27.7219 
  53   2.0000      -1.012468       -27.5507 
  54   2.0000      -0.988276       -26.8924 
  55   2.0000      -0.964620       -26.2486 
  56   2.0000      -0.963894       -26.2289 
  57   2.0000      -0.940653       -25.5965 
  58   2.0000      -0.926954       -25.2237 
  59   2.0000      -0.924463       -25.1559 
  60   2.0000      -0.888898       -24.1881 
  61   2.0000      -0.828360       -22.5408 
  62   2.0000      -0.815912       -22.2021 
  63   2.0000      -0.805141       -21.9090 
  64   2.0000      -0.796522       -21.6745 
  65   2.0000      -0.791662       -21.5422 
  66   2.0000      -0.780142       -21.2287 
  67   2.0000      -0.730920       -19.8894 
  68   2.0000      -0.715677       -19.4745 
  69   2.0000      -0.705308       -19.1924 
  70   2.0000      -0.696424       -18.9507 
  71   2.0000      -0.684960       -18.6387 
  72   2.0000      -0.680613       -18.5204 
  73   2.0000      -0.674351       -18.3500 
  74   2.0000      -0.672838       -18.3089 
  75   2.0000      -0.664640       -18.0858 
  76   2.0000      -0.654311       -17.8047 
  77   2.0000      -0.620474       -16.8840 
  78   2.0000      -0.617921       -16.8145 
  79   2.0000      -0.603010       -16.4087 
  80   2.0000      -0.583386       -15.8747 
  81   2.0000      -0.580563       -15.7979 
  82   2.0000      -0.571551       -15.5527 
  83   2.0000      -0.565864       -15.3979 
  84   2.0000      -0.559261       -15.2183 
  85   2.0000      -0.549643       -14.9565 
  86   2.0000      -0.542071       -14.7505 
  87   2.0000      -0.533259       -14.5107 
  88   2.0000      -0.531552       -14.4643 
  89   2.0000      -0.523800       -14.2533 
  90   2.0000      -0.518044       -14.0967 
  91   2.0000      -0.512397       -13.9430 
  92   2.0000      -0.506972       -13.7954 
  93   2.0000      -0.503356       -13.6970 
  94   2.0000      -0.495948       -13.4954 
  95   2.0000      -0.490086       -13.3359 
  96   2.0000      -0.487031       -13.2528 
  97   2.0000      -0.483152       -13.1472 
  98   2.0000      -0.474068       -12.9000 
  99   2.0000      -0.472988       -12.8707 
 100   2.0000      -0.470254       -12.7963 
 101   2.0000      -0.466259       -12.6876 
 102   2.0000      -0.461485       -12.5576 
 103   2.0000      -0.456797       -12.4301 
 104   2.0000      -0.451085       -12.2746 
 105   2.0000      -0.449518       -12.2320 
 106   2.0000      -0.446225       -12.1424 
 107   2.0000      -0.438084       -11.9209 
 108   2.0000      -0.434499       -11.8233 
 109   2.0000      -0.433030       -11.7833 
 110   2.0000      -0.427590       -11.6353 
 111   2.0000      -0.423461       -11.5230 
 112   2.0000      -0.423016       -11.5108 
 113   2.0000      -0.415363       -11.3026 
 114   2.0000      -0.406497       -11.0613 
 115   2.0000      -0.401382       -10.9222 
 116   2.0000      -0.397809       -10.8249 
 117   2.0000      -0.395219       -10.7545 
 118   2.0000      -0.391665       -10.6577 
 119   2.0000      -0.387643       -10.5483 
 120   2.0000      -0.384974       -10.4757 
 121   2.0000      -0.381961       -10.3937 
 122   2.0000      -0.380550       -10.3553 
 123   2.0000      -0.377126       -10.2621 
 124   2.0000      -0.367279        -9.9942 
 125   2.0000      -0.357807        -9.7364 
 126   2.0000      -0.356647        -9.7048 
 127   2.0000      -0.346769        -9.4361 
 128   2.0000      -0.339245        -9.2313 
 129   2.0000      -0.333511        -9.0753 
 130   2.0000      -0.329292        -8.9605 
 131   2.0000      -0.325011        -8.8440 
 132   2.0000      -0.321911        -8.7596 
 133   2.0000      -0.317742        -8.6462 
 134   2.0000      -0.312287        -8.4978 
 135   2.0000      -0.303690        -8.2638 
 136   2.0000      -0.303641        -8.2625 
 137   2.0000      -0.301156        -8.1949 
 138   2.0000      -0.297094        -8.0843 
 139   2.0000      -0.293543        -7.9877 
 140   2.0000      -0.288487        -7.8501 
 141   2.0000      -0.284282        -7.7357 
 142   2.0000      -0.279264        -7.5992 
 143   2.0000      -0.273225        -7.4348 
 144   2.0000      -0.272687        -7.4202 
 145   2.0000      -0.267031        -7.2663 
 146   2.0000      -0.264538        -7.1984 
 147   2.0000      -0.253256        -6.8915 
 148   2.0000      -0.248653        -6.7662 
 149   2.0000      -0.239808        -6.5255 
 150   2.0000      -0.233875        -6.3641 
 151   2.0000      -0.232000        -6.3131 
 152   2.0000      -0.213868        -5.8197 
 153   0.0000       0.116876         3.1804 
 154   0.0000       0.121188         3.2977 
 155   0.0000       0.136345         3.7101 
 156   0.0000       0.141822         3.8592 
 157   0.0000       0.146395         3.9836 
 158   0.0000       0.149668         4.0727 
 159   0.0000       0.152273         4.1436 
 160   0.0000       0.154346         4.2000 
 161   0.0000       0.159811         4.3487 
 162   0.0000       0.164024         4.4633 
 163   0.0000       0.166026         4.5178 
 164   0.0000       0.175138         4.7658 
 165   0.0000       0.176177         4.7940 
 166   0.0000       0.178567         4.8590 
 167   0.0000       0.181087         4.9276 
 168   0.0000       0.183384         4.9901 
 169   0.0000       0.184292         5.0148 
 170   0.0000       0.190553         5.1852 
 171   0.0000       0.195440         5.3182 
 172   0.0000       0.196160         5.3378 
 173   0.0000       0.199217         5.4210 
 174   0.0000       0.202555         5.5118 
 175   0.0000       0.209748         5.7075 
 176   0.0000       0.212760         5.7895 
 177   0.0000       0.213569         5.8115 
 178   0.0000       0.219106         5.9622 
 179   0.0000       0.223203         6.0737 
 180   0.0000       0.224954         6.1213 
 181   0.0000       0.233244         6.3469 
 182   0.0000       0.236900         6.4464 
[...]
 127:      1282.18   74.094112  (  5.478552   6.440353  -1.612896)
 128:      1292.46   81.227876  ( -5.807255  -5.909810   3.546521)
 129:      1292.94   15.595337  ( -3.791304  -0.736659   0.823822)
 130:      1299.41  284.802526  ( 13.531091  10.056594   0.759618)
 131:      1311.30   13.174850  (  0.330009  -3.509970  -0.863745)
 132:      1317.01   80.310531  ( -3.817160  -4.887365   6.469426)
 133:      1321.85   69.552029  ( -6.004217  -5.677309   1.126751)
 134:      1323.40    6.360233  (  0.049611  -0.300397  -2.503504)
 135:      1326.69    1.498718  (  0.240450  -1.124482   0.420050)
 136:      1329.75   34.240509  (  4.318419   3.918499  -0.486958)
 137:      1338.03   13.310820  (  3.173592   1.083219  -1.437280)
 138:      1354.73    1.001930  ( -0.395693   0.910531   0.127631)
 139:      1354.94    4.526930  ( -1.739490  -1.159190   0.396717)
 140:      1373.81   37.902337  ( -0.543011   5.772138   2.071208)
 141:      1379.20   23.990233  ( -3.872196  -1.283859   2.710727)
 142:      1382.68    2.495915  (  0.682558   1.204091  -0.761705)
 143:      1385.08   69.826523  (  4.406125   4.738207  -5.287909)
 144:      1395.47    2.302983  (  0.461117  -1.405984  -0.336994)
 145:      1404.08   20.708489  ( -2.198534  -1.759155   3.574956)
 146:      1406.56   47.477864  ( -4.750501  -4.962006  -0.537679)
 147:      1411.80    8.336960  (  0.672073   0.247237  -2.797169)
 148:      1413.17   32.625537  ( -3.714117  -3.935007  -1.829368)
 149:      1414.72    3.621084  (  0.431004   1.757852   0.587602)
 150:      1416.58    8.192116  (  1.420892   1.204040  -2.173354)
 151:      1420.30    1.800700  (  0.139880   1.038553   0.838178)
 152:      1430.71    5.743975  (  0.037003   2.389956  -0.175256)
 153:      1433.15    8.692746  ( -2.415736  -1.197483   1.192896)
 154:      1436.61   23.321415  (  0.948337   0.309764  -4.725052)
 155:      1437.74    2.927303  (  0.231441   0.673647   1.555615)
 156:      1441.34   47.488152  (  2.496166   4.929103  -4.118404)
 157:      1441.86   25.710775  ( -0.858676  -4.808549  -1.360628)
 158:      1443.73    5.793874  ( -0.594623   0.206366   2.323297)
 159:      1452.23   17.699940  ( -2.117960  -2.556400   2.584377)
 160:      1464.96   14.675774  ( -3.440135   1.506543   0.756024)
 161:      1466.89    7.309022  (  0.344050   1.103517   2.443952)
 162:      1469.42    2.725292  (  1.163379  -1.142232   0.259126)
 163:      1470.65   10.677684  ( -2.532176   2.038838  -0.330018)
 164:      1480.66   13.127736  ( -2.294960  -2.674382   0.841767)
 165:      1486.31    8.004517  (  1.742521  -1.818729  -1.288551)
 166:      1490.61   11.109561  (  1.822678   1.785561   2.144569)
 167:      1496.79    8.981855  ( -1.427025  -0.591848  -2.568106)
 168:      1510.74   31.411522  ( -0.992290   1.117533   5.401667)
 169:      1535.03  148.377753  (  3.607018   7.718827   8.705566)
 170:      1547.25   30.332147  (  2.909005   2.147184  -4.154448)
 171:      1594.00   85.817422  (  3.890033   8.129964  -2.142136)
 172:      1636.14   25.495600  ( -0.304483   3.837085  -3.267976)
 173:      1699.46   92.043518  (  2.668023   4.335309  -8.132052)
 174:      1712.00  412.384790  ( -9.809479 -17.575293  -2.695923)
 175:      1740.70  123.887521  (  5.038175   9.878508  -0.958852)
 176:      1792.84  1016.577441  (-13.113940 -23.081101  17.659694)
 177:      1816.45  601.533090  (  1.578976   5.986441  23.731887)
 178:      3026.63   36.731514  (  5.967349  -0.473905  -0.947455)
 179:      3029.98   50.340446  (  1.757679   6.851647  -0.553126)
 180:      3046.15   25.830914  ( -0.525355  -3.350580   3.785304)
 181:      3047.19   55.007930  (  4.086561  -6.012808  -1.467682)
 182:      3054.35   28.479750  (  0.624311  -3.798098   3.696544)
 183:      3054.99   53.206673  ( -0.636848   4.757210   5.492727)
 184:      3056.00   19.685386  (  4.000633   0.595077   1.823788)
 185:      3081.85   27.528627  (  3.161071  -0.093382  -4.186590)
 186:      3091.12   31.880347  ( -3.019083   0.910817  -4.683577)
 187:      3097.99   50.321951  (  3.402785   5.642973  -2.626758)
 188:      3104.07   25.591010  (  2.338894   4.349831   1.095240)
 189:      3106.43   19.431746  (  4.100753   1.602026  -0.221541)
 190:      3113.51   10.390095  ( -3.201902   0.320021   0.188423)
 191:      3144.18   10.457741  (  1.972094  -2.497491   0.575437)
 192:      3145.17   11.467605  ( -2.717382  -2.008726   0.220128)
 193:      3149.87   11.032736  ( -0.597315   2.065957   2.531358)
 194:      3154.54   81.179373  ( -3.305351  -8.053211  -2.323752)
 195:      3156.69   23.677120  (  2.703393   3.541128   1.956835)
 196:      3163.32    3.204538  (  1.310713   1.202750   0.199902)
 197:      3172.36    7.010481  ( -0.645499   0.019377  -2.567769)
 198:      3174.18    1.096380  (  0.402143   0.494919   0.830492)
 199:      3182.41   13.509138  ( -0.411284  -0.672994   3.589855)
 200:      3186.26   24.222673  ( -2.116618  -4.069019  -1.784849)
 201:      3286.04    0.062679  (  0.069889  -0.171590   0.168378)
 202:      3625.98   70.215373  (  1.829381   7.924230  -2.018741)
 203:      3670.19   69.967909  ( -3.543043  -6.349448  -4.135126)
 204:      3749.08   50.065771  (  0.809156   2.537428   6.555341)
 205:      3930.58   26.456154  ( -2.563924   3.972780   2.024714)
 206:      3956.85   69.271757  ( -2.390749   3.278243   7.266994)

The first frequency considered to be a vibration is 8
The total number of vibrations considered is 199


--------------------------
THERMOCHEMISTRY AT 298.15K
--------------------------

Temperature         ... 298.15 K
Pressure            ... 1.00 atm
Total Mass          ... 582.49 AMU

Throughout the following assumptions are being made:
  (1) The electronic state is orbitally nondegenerate
  (2) There are no thermally accessible electronically excited states
  (3) Hindered rotations indicated by low frequency modes are not
      treated as such but are treated as vibrations and this may
      cause some error
  (4) All equations used are the standard statistical mechanics
      equations for an ideal gas
  (5) All vibrations are strictly harmonic

freq.      20.29  E(vib)   ...       0.56 
freq.      24.48  E(vib)   ...       0.56 
freq.      33.33  E(vib)   ...       0.55 
freq.      44.34  E(vib)   ...       0.53 
freq.      53.52  E(vib)   ...       0.52 
freq.      59.37  E(vib)   ...       0.51 
freq.      63.72  E(vib)   ...       0.51 
freq.      71.11  E(vib)   ...       0.50 
freq.      82.76  E(vib)   ...       0.48 
freq.      83.42  E(vib)   ...       0.48 
freq.      92.95  E(vib)   ...       0.47 
freq.     105.10  E(vib)   ...       0.45 
freq.     114.27  E(vib)   ...       0.44 
freq.     127.83  E(vib)   ...       0.43 
freq.     137.29  E(vib)   ...       0.42 
freq.     145.34  E(vib)   ...       0.41 
freq.     170.43  E(vib)   ...       0.38 
freq.     171.85  E(vib)   ...       0.38 
freq.     187.26  E(vib)   ...       0.36 
freq.     192.69  E(vib)   ...       0.36 
freq.     197.50  E(vib)   ...       0.35 
freq.     202.22  E(vib)   ...       0.35 
freq.     204.68  E(vib)   ...       0.35 
freq.     216.33  E(vib)   ...       0.34 
freq.     223.74  E(vib)   ...       0.33 
freq.     232.56  E(vib)   ...       0.32 
freq.     234.62  E(vib)   ...       0.32 
freq.     262.67  E(vib)   ...       0.29 
freq.     275.87  E(vib)   ...       0.28 
freq.     276.67  E(vib)   ...       0.28 
freq.     282.08  E(vib)   ...       0.28 
freq.     284.31  E(vib)   ...       0.28 
freq.     295.41  E(vib)   ...       0.27 
freq.     303.28  E(vib)   ...       0.26 
freq.     317.98  E(vib)   ...       0.25 
freq.     343.52  E(vib)   ...       0.23 
freq.     369.69  E(vib)   ...       0.21 
freq.     374.93  E(vib)   ...       0.21 
freq.     379.26  E(vib)   ...       0.21 
freq.     382.55  E(vib)   ...       0.21 
freq.     391.11  E(vib)   ...       0.20 
freq.     416.43  E(vib)   ...       0.18 
freq.     423.35  E(vib)   ...       0.18 
freq.     441.98  E(vib)   ...       0.17 
freq.     446.85  E(vib)   ...       0.17 
freq.     459.18  E(vib)   ...       0.16 
freq.     461.17  E(vib)   ...       0.16 
freq.     466.49  E(vib)   ...       0.16 
freq.     475.31  E(vib)   ...       0.15 
freq.     485.10  E(vib)   ...       0.15 
freq.     494.59  E(vib)   ...       0.14 
freq.     512.89  E(vib)   ...       0.13 
freq.     526.89  E(vib)   ...       0.13 
freq.     532.67  E(vib)   ...       0.13 
freq.     558.53  E(vib)   ...       0.12 
freq.     563.65  E(vib)   ...       0.11 
freq.     585.03  E(vib)   ...       0.11 
freq.     591.72  E(vib)   ...       0.10 
freq.     605.81  E(vib)   ...       0.10 
freq.     632.64  E(vib)   ...       0.09 
freq.     666.98  E(vib)   ...       0.08 
freq.     669.00  E(vib)   ...       0.08 
freq.     673.56  E(vib)   ...       0.08 
freq.     674.41  E(vib)   ...       0.08 
freq.     684.29  E(vib)   ...       0.07 
freq.     712.28  E(vib)   ...       0.07 
freq.     715.83  E(vib)   ...       0.07 
freq.     725.32  E(vib)   ...       0.06 
freq.     752.71  E(vib)   ...       0.06 
freq.     758.23  E(vib)   ...       0.06 
freq.     768.92  E(vib)   ...       0.06 
freq.     778.50  E(vib)   ...       0.05 
freq.     788.89  E(vib)   ...       0.05 
freq.     803.61  E(vib)   ...       0.05 
freq.     822.75  E(vib)   ...       0.05 
freq.     824.67  E(vib)   ...       0.04 
freq.     847.46  E(vib)   ...       0.04 
freq.     867.77  E(vib)   ...       0.04 
freq.     882.29  E(vib)   ...       0.04 
freq.     888.91  E(vib)   ...       0.04 
freq.     901.40  E(vib)   ...       0.03 
freq.     902.74  E(vib)   ...       0.03 
freq.     904.74  E(vib)   ...       0.03 
freq.     913.35  E(vib)   ...       0.03 
freq.     929.92  E(vib)   ...       0.03 
freq.     932.16  E(vib)   ...       0.03 
freq.     945.03  E(vib)   ...       0.03 
freq.     954.48  E(vib)   ...       0.03 
freq.     997.73  E(vib)   ...       0.02 
freq.    1002.48  E(vib)   ...       0.02 
freq.    1004.98  E(vib)   ...       0.02 
freq.    1014.49  E(vib)   ...       0.02 
freq.    1033.11  E(vib)   ...       0.02 
freq.    1035.72  E(vib)   ...       0.02 
freq.    1050.78  E(vib)   ...       0.02 
freq.    1053.14  E(vib)   ...       0.02 
freq.    1053.29  E(vib)   ...       0.02 
freq.    1069.28  E(vib)   ...       0.02 
freq.    1081.47  E(vib)   ...       0.02 
freq.    1090.86  E(vib)   ...       0.02 
freq.    1105.72  E(vib)   ...       0.02 
freq.    1109.36  E(vib)   ...       0.02 
freq.    1123.39  E(vib)   ...       0.01 
freq.    1134.80  E(vib)   ...       0.01 
freq.    1150.10  E(vib)   ...       0.01 
freq.    1169.85  E(vib)   ...       0.01 
freq.    1177.52  E(vib)   ...       0.01 
freq.    1180.05  E(vib)   ...       0.01 
freq.    1181.94  E(vib)   ...       0.01 
freq.    1185.82  E(vib)   ...       0.01 
freq.    1198.15  E(vib)   ...       0.01 
freq.    1201.04  E(vib)   ...       0.01 
freq.    1213.80  E(vib)   ...       0.01 
freq.    1224.72  E(vib)   ...       0.01 
freq.    1239.56  E(vib)   ...       0.01 
freq.    1241.91  E(vib)   ...       0.01 
freq.    1261.86  E(vib)   ...       0.01 
freq.    1270.95  E(vib)   ...       0.01 
freq.    1275.24  E(vib)   ...       0.01 
freq.    1282.18  E(vib)   ...       0.01 
freq.    1292.46  E(vib)   ...       0.01 
freq.    1292.94  E(vib)   ...       0.01 
freq.    1299.41  E(vib)   ...       0.01 
freq.    1311.30  E(vib)   ...       0.01 
freq.    1317.01  E(vib)   ...       0.01 
freq.    1321.85  E(vib)   ...       0.01 
freq.    1323.40  E(vib)   ...       0.01 
freq.    1326.69  E(vib)   ...       0.01 
freq.    1329.75  E(vib)   ...       0.01 
freq.    1338.03  E(vib)   ...       0.01 
freq.    1354.73  E(vib)   ...       0.01 
freq.    1354.94  E(vib)   ...       0.01 
freq.    1373.81  E(vib)   ...       0.01 
freq.    1379.20  E(vib)   ...       0.01 
freq.    1382.68  E(vib)   ...       0.01 
freq.    1385.08  E(vib)   ...       0.00 
freq.    1395.47  E(vib)   ...       0.00 
freq.    1404.08  E(vib)   ...       0.00 
freq.    1406.56  E(vib)   ...       0.00 
freq.    1411.80  E(vib)   ...       0.00 
freq.    1413.17  E(vib)   ...       0.00 
freq.    1414.72  E(vib)   ...       0.00 
freq.    1416.58  E(vib)   ...       0.00 
freq.    1420.30  E(vib)   ...       0.00 
freq.    1430.71  E(vib)   ...       0.00 
freq.    1433.15  E(vib)   ...       0.00 
freq.    1436.61  E(vib)   ...       0.00 
freq.    1437.74  E(vib)   ...       0.00 
freq.    1441.34  E(vib)   ...       0.00 
freq.    1441.86  E(vib)   ...       0.00 
freq.    1443.73  E(vib)   ...       0.00 
freq.    1452.23  E(vib)   ...       0.00 
freq.    1464.96  E(vib)   ...       0.00 
freq.    1466.89  E(vib)   ...       0.00 
freq.    1469.42  E(vib)   ...       0.00 
freq.    1470.65  E(vib)   ...       0.00 
freq.    1480.66  E(vib)   ...       0.00 
freq.    1486.31  E(vib)   ...       0.00 
freq.    1490.61  E(vib)   ...       0.00 
freq.    1496.79  E(vib)   ...       0.00 
freq.    1510.74  E(vib)   ...       0.00 
freq.    1535.03  E(vib)   ...       0.00 
freq.    1547.25  E(vib)   ...       0.00 
freq.    1594.00  E(vib)   ...       0.00 
freq.    1636.14  E(vib)   ...       0.00 
freq.    1699.46  E(vib)   ...       0.00 
freq.    1712.00  E(vib)   ...       0.00 
freq.    1740.70  E(vib)   ...       0.00 
freq.    1792.84  E(vib)   ...       0.00 
freq.    1816.45  E(vib)   ...       0.00 
freq.    3026.63  E(vib)   ...       0.00 
freq.    3029.98  E(vib)   ...       0.00 
freq.    3046.15  E(vib)   ...       0.00 
freq.    3047.19  E(vib)   ...       0.00 
freq.    3054.35  E(vib)   ...       0.00 
freq.    3054.99  E(vib)   ...       0.00 
freq.    3056.00  E(vib)   ...       0.00 
freq.    3081.85  E(vib)   ...       0.00 
freq.    3091.12  E(vib)   ...       0.00 
freq.    3097.99  E(vib)   ...       0.00 
freq.    3104.07  E(vib)   ...       0.00 
freq.    3106.43  E(vib)   ...       0.00 
freq.    3113.51  E(vib)   ...       0.00 
freq.    3144.18  E(vib)   ...       0.00 
freq.    3145.17  E(vib)   ...       0.00 
freq.    3149.87  E(vib)   ...       0.00 
freq.    3154.54  E(vib)   ...       0.00 
freq.    3156.69  E(vib)   ...       0.00 
freq.    3163.32  E(vib)   ...       0.00 
freq.    3172.36  E(vib)   ...       0.00 
freq.    3174.18  E(vib)   ...       0.00 
freq.    3182.41  E(vib)   ...       0.00 
freq.    3186.26  E(vib)   ...       0.00 
freq.    3286.04  E(vib)   ...       0.00 
freq.    3625.98  E(vib)   ...       0.00 
freq.    3670.19  E(vib)   ...       0.00 
freq.    3749.08  E(vib)   ...       0.00 
freq.    3930.58  E(vib)   ...       0.00 
freq.    3956.85  E(vib)   ...       0.00 

------------
INNER ENERGY
------------

The inner energy is: U= E(el) + E(ZPE) + E(vib) + E(rot) + E(trans)
    E(el)   - is the total energy from the electronic structure calculation
              = E(kin-el) + E(nuc-el) + E(el-el) + E(nuc-nuc)
    E(ZPE)  - the the zero temperature vibrational energy from the frequency calculation
    E(vib)  - the the finite temperature correction to E(ZPE) due to population
              of excited vibrational states
    E(rot)  - is the rotational thermal energy
    E(trans)- is the translational thermal energy

Summary of contributions to the inner energy U:
Electronic energy                ...  -2330.92385916 Eh
Zero point energy                ...      0.55398285 Eh     347.63 kcal/mol
Thermal vibrational correction   ...      0.03159731 Eh      19.83 kcal/mol
Thermal rotational correction    ...      0.00141627 Eh       0.89 kcal/mol
Thermal translational correction ...      0.00141627 Eh       0.89 kcal/mol
-----------------------------------------------------------------------
Total thermal energy                  -2330.33544646 Eh


Summary of corrections to the electronic energy:
(perhaps to be used in another calculation)
Total thermal correction                  0.03442985 Eh      21.61 kcal/mol
Non-thermal (ZPE) correction              0.55398285 Eh     347.63 kcal/mol
-----------------------------------------------------------------------
Total correction                          0.58841270 Eh     369.23 kcal/mol


--------
ENTHALPY
--------

The enthalpy is H = U + kB*T
                kB is Boltzmann's constant
Total free energy                 ...  -2330.33544646 Eh 
Thermal Enthalpy correction       ...      0.00094421 Eh       0.59 kcal/mol
-----------------------------------------------------------------------
Total Enthalpy                    ...  -2330.33450225 Eh


Note: Only C1 symmetry has been detected, increase convergence thresholds 
      if your molecule has a higher symmetry. Symmetry factor of 1.0 is   
      used for the rotational entropy correction. 
 

Note: Rotational entropy computed according to Herzberg 
Infrared and Raman Spectra, Chapter V,1, Van Nostrand Reinhold, 1945 
Point Group:  C1, Symmetry Number:   1  
Rotational constants in cm-1:     0.003870     0.003100     0.002143 

Vibrational entropy computed according to the QRRHO of S. Grimme
Chem.Eur.J. 2012 18 9955


-------
ENTROPY
-------

The entropy contributions are T*S = T*(S(el)+S(vib)+S(rot)+S(trans))
     S(el)   - electronic entropy
     S(vib)  - vibrational entropy
     S(rot)  - rotational entropy
     S(trans)- translational entropy
The entropies will be listed as mutliplied by the temperature to get
units of energy

Electronic entropy                ...      0.00000000 Eh      0.00 kcal/mol
Vibrational entropy               ...      0.05570575 Eh     34.96 kcal/mol
Rotational entropy                ...      0.01776121 Eh     11.15 kcal/mol
Translational entropy             ...      0.02136691 Eh     13.41 kcal/mol
-----------------------------------------------------------------------
Final entropy term                ...      0.09483386 Eh     59.51 kcal/mol

In case the symmetry of your molecule has not been determined correctly
or in case you have a reason to use a different symmetry number we print 
out the resulting rotational entropy values for sn=1,12 :
 --------------------------------------------------------
|  sn= 1 | S(rot)=       0.01776121 Eh     11.15 kcal/mol|
|  sn= 2 | S(rot)=       0.01710675 Eh     10.73 kcal/mol|
|  sn= 3 | S(rot)=       0.01672392 Eh     10.49 kcal/mol|
|  sn= 4 | S(rot)=       0.01645229 Eh     10.32 kcal/mol|
|  sn= 5 | S(rot)=       0.01624161 Eh     10.19 kcal/mol|
|  sn= 6 | S(rot)=       0.01606946 Eh     10.08 kcal/mol|
|  sn= 7 | S(rot)=       0.01592392 Eh      9.99 kcal/mol|
|  sn= 8 | S(rot)=       0.01579784 Eh      9.91 kcal/mol|
|  sn= 9 | S(rot)=       0.01568663 Eh      9.84 kcal/mol|
|  sn=10 | S(rot)=       0.01558715 Eh      9.78 kcal/mol|
|  sn=11 | S(rot)=       0.01549716 Eh      9.72 kcal/mol|
|  sn=12 | S(rot)=       0.01541501 Eh      9.67 kcal/mol|
 --------------------------------------------------------


-------------------
GIBBS FREE ENERGY
-------------------

The Gibbs free energy is G = H - T*S

Total enthalpy                    ...  -2330.33450225 Eh 
Total entropy correction          ...     -0.09483386 Eh    -59.51 kcal/mol
-----------------------------------------------------------------------
Final Gibbs free energy         ...  -2330.42933611 Eh

For completeness - the Gibbs free energy minus the electronic energy
G-E(el)                           ...      0.49452305 Eh    310.32 kcal/mol


Timings for individual modules:

Sum of individual times         ...   448753.890 sec (=7479.232 min)
GTO integral calculation        ...       53.755 sec (=   0.896 min)   0.0 %
SCF iterations                  ...    59753.864 sec (= 995.898 min)  13.3 %
SCF Gradient evaluation         ...    21519.373 sec (= 358.656 min)   4.8 %
Geometry relaxation             ...       11.905 sec (=   0.198 min)   0.0 %
Analytical frequency calculation...   367414.993 sec (=6123.583 min)  81.9 %
                             ****ORCA TERMINATED NORMALLY****
TOTAL RUN TIME: 5 days 4 hours 39 minutes 29 seconds 399 msec
