69
* (null), Energy   -1000.0000000
H     2.565453   -2.546653   -2.751380    0.220532    0.202241    0.313547
O     2.396240   -2.079956   -1.931457    0.151339    0.203793    0.298944
C     1.493029   -2.831057   -1.135293    0.122001    0.181735    0.246086
H     0.853242   -3.465951   -1.774703    0.212951    0.130997    0.211674
H     2.051415   -3.492306   -0.448228    0.098653    0.228687    0.311817
C     0.572650   -1.946576   -0.294920   -0.004753    0.152166    0.138880
H    -0.198307   -2.620602    0.110805    0.001104    0.114715    0.087040
O     1.222176   -1.427335    0.845689   -0.143007    0.229096    0.183637
C     2.052738   -0.306575    0.650764   -0.183137    0.260793    0.219072
H     2.917512   -0.551001    0.003530   -0.110934    0.273575    0.317735
H     2.423601   -0.022632    1.644710   -0.289841    0.320176    0.243430
C     1.256902    0.846919    0.040128   -0.155012    0.212486    0.081417
H     0.470204    1.134320    0.748981   -0.215997    0.276940   -0.008119
C     0.614600    0.412648   -1.270845   -0.053083    0.121699    0.059752
H     1.404222    0.201459   -2.008579    0.005716    0.141805    0.119382
H    -0.051202    1.201171   -1.649301   -0.071980    0.070975   -0.016078
N     2.109931    2.021642   -0.137705   -0.117512    0.185093    0.056650
C     2.509222    2.641792   -1.296393   -0.120867    0.157853    0.040993
H     2.256950    2.232685   -2.272296   -0.208578    0.187872    0.052245
N     3.180615    3.748140   -1.109117   -0.020223    0.100390    0.013843
C     3.232640    3.875869    0.261255    0.058565    0.087784    0.011188
C     3.702523    4.895414    1.114252    0.225025    0.026562   -0.006795
N     4.278087    6.030198    0.634396    0.323792   -0.034890   -0.036410
H     4.068279    6.249850   -0.331590    0.266978    0.002883   -0.015460
H     4.258199    6.815054    1.274074    0.473315   -0.043103   -0.022856
N     3.578295    4.733387    2.433989    0.286087    0.029163   -0.001694
C     2.977021    3.628945    2.897681    0.197075    0.087697    0.024084
H     2.904283    3.551300    3.988684    0.244679    0.086985    0.027060
N     2.442421    2.638758    2.200165    0.055161    0.147595    0.047106
C     2.581098    2.811380    0.881799   -0.002400    0.140561    0.038193
C    -0.185576   -0.888683   -1.128277    0.005792    0.081664    0.043418
H    -0.288179   -1.305405   -2.145206    0.111107    0.043812    0.049421
O    -1.512908   -0.768617   -0.666875   -0.040791    0.022147   -0.075191
P    -2.222308    0.381218    0.292062   -0.138881   -0.038032   -0.073625
O    -3.631825   -0.067977    0.504537   -0.118987   -0.124310   -0.123830
O    -1.823716    1.759542   -0.175763   -0.198743   -0.010126   -0.044274
O    -1.366974    0.202913    1.702508   -0.169080   -0.003323   -0.058178
C    -1.707438   -0.727900    2.703143   -0.108881   -0.043485   -0.076780
H    -2.612782   -1.287539    2.410487   -0.130751   -0.028078   -0.044331
H    -0.868118   -1.434606    2.820599   -0.103949   -0.049799   -0.152291
C    -1.960402   -0.048065    4.048023   -0.019366   -0.089357   -0.036389
H    -2.298369   -0.835919    4.740582    0.018559   -0.111449   -0.042258
O    -0.786439    0.468730    4.643416    0.018702   -0.116714   -0.091594
C    -0.234461    1.603942    4.015838   -0.002938   -0.107595   -0.094809
H     0.118999    1.371843    3.001323   -0.049484   -0.093326   -0.115190
H     0.638587    1.896556    4.615416    0.025106   -0.121764   -0.131258
C    -1.240643    2.760084    3.981150    0.005702   -0.096451   -0.033986
H    -1.367169    3.121743    5.009460    0.074964   -0.094880   -0.026624
C    -2.599414    2.332717    3.421713   -0.037714   -0.073491    0.053207
H    -2.564273    2.221171    2.331632   -0.113620   -0.063406    0.050491
H    -3.350941    3.117475    3.624425   -0.013170   -0.066376    0.115403
N    -0.675325    3.896375    3.233906   -0.018134   -0.106782   -0.066169
C    -0.069783    4.907447    3.954944    0.106306   -0.158579   -0.097673
O    -0.011794    4.939342    5.171577    0.182698   -0.170826   -0.100232
N     0.476559    5.910877    3.180085    0.135117   -0.195827   -0.124548
H     0.970794    6.630237    3.696609    0.217910   -0.233864   -0.151639
C     0.533483    5.998196    1.790439    0.065020   -0.198567   -0.127781
O     1.098688    6.942744    1.260037    0.118413   -0.245675   -0.154976
C    -0.117417    4.891493    1.103352   -0.072044   -0.137209   -0.094053
C    -0.162540    4.876942   -0.395326   -0.152460   -0.122290   -0.090970
H    -0.632864    3.947509   -0.747521   -0.222048   -0.095704   -0.075269
H    -0.743146    5.732715   -0.774499   -0.122609   -0.085225   -0.053828
H     0.846707    4.964151   -0.824275   -0.167361   -0.164947   -0.131711
C    -0.656882    3.900771    1.852510   -0.110157   -0.094963   -0.066107
H    -1.119802    3.043234    1.347697   -0.204071   -0.055075   -0.048339
C    -3.077432    1.003101    4.007337   -0.011024   -0.076373    0.069249
H    -3.888319    0.615147    3.364369   -0.067999   -0.055303    0.129177
O    -3.551736    1.153714    5.340766    0.090658   -0.094287    0.107719
H    -3.938880    2.027497    5.432699    0.121555   -0.085527    0.157839
69
* Frequency(7)  -21.8709
H     2.590516   -2.523669   -2.715747    0.220532    0.202241    0.313547
O     2.413439   -2.056796   -1.897483    0.151339    0.203793    0.298944
C     1.506894   -2.810404   -1.107326    0.122001    0.181735    0.246086
H     0.877443   -3.451064   -1.750647    0.212951    0.130997    0.211674
H     2.062626   -3.466317   -0.412792    0.098653    0.228687    0.311817
C     0.572110   -1.929283   -0.279137   -0.004753    0.152166    0.138880
H    -0.198182   -2.607566    0.120696    0.001104    0.114715    0.087040
O     1.205924   -1.401300    0.866558   -0.143007    0.229096    0.183637
C     2.031925   -0.276937    0.675660   -0.183137    0.260793    0.219072
H     2.904905   -0.519911    0.039639   -0.110934    0.273575    0.317735
H     2.390662    0.013754    1.672375   -0.289841    0.320176    0.243430
C     1.239286    0.871067    0.049381   -0.155012    0.212486    0.081417
H     0.445657    1.165793    0.748059   -0.215997    0.276940   -0.008119
C     0.608567    0.426479   -1.264055   -0.053083    0.121699    0.059752
H     1.404871    0.217574   -1.995012    0.005716    0.141805    0.119382
H    -0.059382    1.209237   -1.651128   -0.071980    0.070975   -0.016078
N     2.096576    2.042677   -0.131267   -0.117512    0.185093    0.056650
C     2.495486    2.659731   -1.291735   -0.120867    0.157853    0.040993
H     2.233246    2.254035   -2.266359   -0.208578    0.187872    0.052245
N     3.178317    3.759549   -1.107544   -0.020223    0.100390    0.013843
C     3.239295    3.885845    0.262527    0.058565    0.087784    0.011188
C     3.728096    4.898432    1.113480    0.225025    0.026562   -0.006795
N     4.314885    6.026233    0.630258    0.323792   -0.034890   -0.036410
H     4.098620    6.250178   -0.333347    0.266978    0.002883   -0.015460
H     4.311988    6.810156    1.271477    0.473315   -0.043103   -0.022856
N     3.610807    4.736701    2.433797    0.286087    0.029163   -0.001694
C     2.999418    3.638912    2.900418    0.197075    0.087697    0.024084
H     2.932090    3.561185    3.991759    0.244679    0.086985    0.027060
N     2.448690    2.655532    2.205518    0.055161    0.147595    0.047106
C     2.580825    2.827354    0.886139   -0.002400    0.140561    0.038193
C    -0.184918   -0.879402   -1.123343    0.005792    0.081664    0.043418
H    -0.275553   -1.300426   -2.139590    0.111107    0.043812    0.049421
O    -1.517544   -0.766100   -0.675420   -0.040791    0.022147   -0.075191
P    -2.238091    0.376896    0.283695   -0.138881   -0.038032   -0.073625
O    -3.645348   -0.082104    0.490465   -0.118987   -0.124310   -0.123830
O    -1.846302    1.758391   -0.180794   -0.198743   -0.010126   -0.044274
O    -1.386189    0.202536    1.695897   -0.169080   -0.003323   -0.058178
C    -1.719812   -0.732842    2.694417   -0.108881   -0.043485   -0.076780
H    -2.627642   -1.290730    2.405449   -0.130751   -0.028078   -0.044331
H    -0.879931   -1.440266    2.803292   -0.103949   -0.049799   -0.152291
C    -1.962603   -0.058220    4.043888   -0.019366   -0.089357   -0.036389
H    -2.296260   -0.848585    4.735780    0.018559   -0.111449   -0.042258
O    -0.784314    0.455466    4.633007    0.018702   -0.116714   -0.091594
C    -0.234795    1.591714    4.005064   -0.002938   -0.107595   -0.094809
H     0.113375    1.361237    2.988233   -0.049484   -0.093326   -0.115190
H     0.641440    1.882718    4.600499    0.025106   -0.121764   -0.131258
C    -1.239995    2.749123    3.977288    0.005702   -0.096451   -0.033986
H    -1.358649    3.110961    5.006434    0.074964   -0.094880   -0.026624
C    -2.603700    2.324365    3.427760   -0.037714   -0.073491    0.053207
H    -2.577185    2.213965    2.337370   -0.113620   -0.063406    0.050491
H    -3.352437    3.109931    3.637540   -0.013170   -0.066376    0.115403
N    -0.677386    3.884239    3.226386   -0.018134   -0.106782   -0.066169
C    -0.057702    4.889425    3.943843    0.106306   -0.158579   -0.097673
O     0.008969    4.919928    5.160186    0.182698   -0.170826   -0.100232
N     0.491914    5.888622    3.165931    0.135117   -0.195827   -0.124548
H     0.995558    6.603659    3.679376    0.217910   -0.233864   -0.151639
C     0.540872    5.975630    1.775918    0.065020   -0.198567   -0.127781
O     1.112145    6.914825    1.242425    0.118413   -0.245675   -0.154976
C    -0.125605    4.875900    1.092664   -0.072044   -0.137209   -0.094053
C    -0.179866    4.863044   -0.405664   -0.152460   -0.122290   -0.090970
H    -0.658098    3.936633   -0.756075   -0.222048   -0.095704   -0.075269
H    -0.757080    5.723030   -0.780616   -0.122609   -0.085225   -0.053828
H     0.827687    4.945406   -0.839243   -0.167361   -0.164947   -0.131711
C    -0.669401    3.889979    1.844998   -0.110157   -0.094963   -0.066107
H    -1.142993    3.036975    1.342204   -0.204071   -0.055075   -0.048339
C    -3.078685    0.994422    4.015207   -0.011024   -0.076373    0.069249
H    -3.896047    0.608862    3.379049   -0.067999   -0.055303    0.129177
O    -3.541433    1.142999    5.353007    0.090658   -0.094287    0.107719
H    -3.925066    2.017777    5.450636    0.121555   -0.085527    0.157839
69
* Frequency(7)  -21.8709
H     2.612862   -2.503176   -2.683976    0.220532    0.202241    0.313547
O     2.428774   -2.036146   -1.867191    0.151339    0.203793    0.298944
C     1.519256   -2.791989   -1.082391    0.122001    0.181735    0.246086
H     0.899021   -3.437790   -1.729198    0.212951    0.130997    0.211674
H     2.072622   -3.443144   -0.381195    0.098653    0.228687    0.311817
C     0.571628   -1.913864   -0.265064   -0.004753    0.152166    0.138880
H    -0.198070   -2.595942    0.129516    0.001104    0.114715    0.087040
O     1.191433   -1.378086    0.885166   -0.143007    0.229096    0.183637
C     2.013368   -0.250511    0.697859   -0.183137    0.260793    0.219072
H     2.893664   -0.492190    0.071835   -0.110934    0.273575    0.317735
H     2.361293    0.046198    1.697042   -0.289841    0.320176    0.243430
C     1.223579    0.892598    0.057631   -0.155012    0.212486    0.081417
H     0.423770    1.193855    0.747236   -0.215997    0.276940   -0.008119
C     0.603188    0.438811   -1.258000   -0.053083    0.121699    0.059752
H     1.405451    0.231943   -1.982915    0.005716    0.141805    0.119382
H    -0.066676    1.216429   -1.652757   -0.071980    0.070975   -0.016078
N     2.084669    2.061432   -0.125527   -0.117512    0.185093    0.056650
C     2.483239    2.675727   -1.287581   -0.120867    0.157853    0.040993
H     2.212111    2.273072   -2.261065   -0.208578    0.187872    0.052245
N     3.176268    3.769721   -1.106141   -0.020223    0.100390    0.013843
C     3.245229    3.894740    0.263660    0.058565    0.087784    0.011188
C     3.750898    4.901124    1.112791    0.225025    0.026562   -0.006795
N     4.347695    6.022697    0.626569    0.323792   -0.034890   -0.036410
H     4.125673    6.250470   -0.334914    0.266978    0.002883   -0.015460
H     4.359949    6.805788    1.269161    0.473315   -0.043103   -0.022856
N     3.639796    4.739656    2.433625    0.286087    0.029163   -0.001694
C     3.019387    3.647798    2.902859    0.197075    0.087697    0.024084
H     2.956883    3.569999    3.994501    0.244679    0.086985    0.027060
N     2.454279    2.670488    2.210291    0.055161    0.147595    0.047106
C     2.580582    2.841597    0.890010   -0.002400    0.140561    0.038193
C    -0.184331   -0.871127   -1.118943    0.005792    0.081664    0.043418
H    -0.264294   -1.295986   -2.134582    0.111107    0.043812    0.049421
O    -1.521677   -0.763856   -0.683040   -0.040791    0.022147   -0.075191
P    -2.252164    0.373043    0.276235   -0.138881   -0.038032   -0.073625
O    -3.657405   -0.094700    0.477917   -0.118987   -0.124310   -0.123830
O    -1.866441    1.757365   -0.185281   -0.198743   -0.010126   -0.044274
O    -1.403322    0.202199    1.690001   -0.169080   -0.003323   -0.058178
C    -1.730845   -0.737248    2.686637   -0.108881   -0.043485   -0.076780
H    -2.640890   -1.293575    2.400957   -0.130751   -0.028078   -0.044331
H    -0.890464   -1.445312    2.787861   -0.103949   -0.049799   -0.152291
C    -1.964566   -0.067275    4.040201   -0.019366   -0.089357   -0.036389
H    -2.294379   -0.859878    4.731498    0.018559   -0.111449   -0.042258
O    -0.782419    0.443639    4.623726    0.018702   -0.116714   -0.091594
C    -0.235092    1.580811    3.995457   -0.002938   -0.107595   -0.094809
H     0.108361    1.351781    2.976560   -0.049484   -0.093326   -0.115190
H     0.643984    1.870379    4.587199    0.025106   -0.121764   -0.131258
C    -1.239418    2.739350    3.973844    0.005702   -0.096451   -0.033986
H    -1.351053    3.101346    5.003737    0.074964   -0.094880   -0.026624
C    -2.607521    2.316918    3.433151   -0.037714   -0.073491    0.053207
H    -2.588698    2.207541    2.342486   -0.113620   -0.063406    0.050491
H    -3.353772    3.103206    3.649234   -0.013170   -0.066376    0.115403
N    -0.679223    3.873419    3.219681   -0.018134   -0.106782   -0.066169
C    -0.046930    4.873356    3.933946    0.106306   -0.158579   -0.097673
O     0.027482    4.902618    5.150030    0.182698   -0.170826   -0.100232
N     0.505606    5.868779    3.153310    0.135117   -0.195827   -0.124548
H     1.017639    6.579962    3.664011    0.217910   -0.233864   -0.151639
C     0.547461    5.955509    1.762970    0.065020   -0.198567   -0.127781
O     1.124143    6.889931    1.226721    0.118413   -0.245675   -0.154976
C    -0.132905    4.861997    1.083133   -0.072044   -0.137209   -0.094053
C    -0.195315    4.850653   -0.414882   -0.152460   -0.122290   -0.090970
H    -0.680598    3.926935   -0.763702   -0.222048   -0.095704   -0.075269
H    -0.769504    5.714394   -0.786071   -0.122609   -0.085225   -0.053828
H     0.810728    4.928692   -0.852589   -0.167361   -0.164947   -0.131711
C    -0.680563    3.880356    1.838299   -0.110157   -0.094963   -0.066107
H    -1.163672    3.031394    1.337306   -0.204071   -0.055075   -0.048339
C    -3.079802    0.986683    4.022224   -0.011024   -0.076373    0.069249
H    -3.902937    0.603258    3.392139   -0.067999   -0.055303    0.129177
O    -3.532247    1.133445    5.363923    0.090658   -0.094287    0.107719
H    -3.912748    2.009111    5.466630    0.121555   -0.085527    0.157839
69
* Frequency(7)  -21.8709
H     2.630071   -2.487394   -2.659508    0.220532    0.202241    0.313547
O     2.440583   -2.020244   -1.843864    0.151339    0.203793    0.298944
C     1.528776   -2.777807   -1.063188    0.122001    0.181735    0.246086
H     0.915638   -3.427568   -1.712680    0.212951    0.130997    0.211674
H     2.080321   -3.425299   -0.356863    0.098653    0.228687    0.311817
C     0.571257   -1.901990   -0.254227   -0.004753    0.152166    0.138880
H    -0.197984   -2.586990    0.136308    0.001104    0.114715    0.087040
O     1.180274   -1.360208    0.899496   -0.143007    0.229096    0.183637
C     1.999077   -0.230161    0.714954   -0.183137    0.260793    0.219072
H     2.885007   -0.470842    0.096629   -0.110934    0.273575    0.317735
H     2.338675    0.071182    1.716037   -0.289841    0.320176    0.243430
C     1.211483    0.909179    0.063984   -0.155012    0.212486    0.081417
H     0.406915    1.215465    0.746602   -0.215997    0.276940   -0.008119
C     0.599046    0.448307   -1.253338   -0.053083    0.121699    0.059752
H     1.405897    0.243009   -1.973599    0.005716    0.141805    0.119382
H    -0.072293    1.221968   -1.654012   -0.071980    0.070975   -0.016078
N     2.075499    2.075876   -0.121106   -0.117512    0.185093    0.056650
C     2.473807    2.688044   -1.284382   -0.120867    0.157853    0.040993
H     2.195835    2.287733   -2.256988   -0.208578    0.187872    0.052245
N     3.174690    3.777555   -1.105061   -0.020223    0.100390    0.013843
C     3.249799    3.901590    0.264534    0.058565    0.087784    0.011188
C     3.768457    4.903196    1.112261    0.225025    0.026562   -0.006795
N     4.372961    6.019975    0.623728    0.323792   -0.034890   -0.036410
H     4.146506    6.250695   -0.336120    0.266978    0.002883   -0.015460
H     4.396884    6.802425    1.267377    0.473315   -0.043103   -0.022856
N     3.662121    4.741932    2.433493    0.286087    0.029163   -0.001694
C     3.034766    3.654641    2.904738    0.197075    0.087697    0.024084
H     2.975976    3.576787    3.996612    0.244679    0.086985    0.027060
N     2.458583    2.682005    2.213967    0.055161    0.147595    0.047106
C     2.580394    2.852565    0.892990   -0.002400    0.140561    0.038193
C    -0.183879   -0.864755   -1.115555    0.005792    0.081664    0.043418
H    -0.255624   -1.292568   -2.130726    0.111107    0.043812    0.049421
O    -1.524860   -0.762127   -0.688907   -0.040791    0.022147   -0.075191
P    -2.263001    0.370075    0.270489   -0.138881   -0.038032   -0.073625
O    -3.666690   -0.104401    0.468254   -0.118987   -0.124310   -0.123830
O    -1.881950    1.756575   -0.188736   -0.198743   -0.010126   -0.044274
O    -1.416515    0.201939    1.685462   -0.169080   -0.003323   -0.058178
C    -1.739341   -0.740641    2.680645   -0.108881   -0.043485   -0.076780
H    -2.651093   -1.295766    2.397498   -0.130751   -0.028078   -0.044331
H    -0.898576   -1.449198    2.775977   -0.103949   -0.049799   -0.152291
C    -1.966077   -0.074248    4.037361   -0.019366   -0.089357   -0.036389
H    -2.292931   -0.868575    4.728200    0.018559   -0.111449   -0.042258
O    -0.780959    0.434532    4.616579    0.018702   -0.116714   -0.091594
C    -0.235322    1.572415    3.988059   -0.002938   -0.107595   -0.094809
H     0.104499    1.344498    2.967572   -0.049484   -0.093326   -0.115190
H     0.645943    1.860878    4.576956    0.025106   -0.121764   -0.131258
C    -1.238973    2.731824    3.971192    0.005702   -0.096451   -0.033986
H    -1.345203    3.093942    5.001659    0.074964   -0.094880   -0.026624
C    -2.610464    2.311183    3.437303   -0.037714   -0.073491    0.053207
H    -2.597564    2.202593    2.346426   -0.113620   -0.063406    0.050491
H    -3.354799    3.098026    3.658239   -0.013170   -0.066376    0.115403
N    -0.680638    3.865087    3.214518   -0.018134   -0.106782   -0.066169
C    -0.038635    4.860982    3.926324    0.106306   -0.158579   -0.097673
O     0.041738    4.889288    5.142209    0.182698   -0.170826   -0.100232
N     0.516149    5.853498    3.143591    0.135117   -0.195827   -0.124548
H     1.034643    6.561712    3.652178    0.217910   -0.233864   -0.151639
C     0.552534    5.940014    1.752998    0.065020   -0.198567   -0.127781
O     1.133384    6.870760    1.214628    0.118413   -0.245675   -0.154976
C    -0.138527    4.851290    1.075794   -0.072044   -0.137209   -0.094053
C    -0.207212    4.841110   -0.421981   -0.152460   -0.122290   -0.090970
H    -0.697926    3.919467   -0.769576   -0.222048   -0.095704   -0.075269
H    -0.779071    5.707744   -0.790271   -0.122609   -0.085225   -0.053828
H     0.797668    4.915820   -0.862867   -0.167361   -0.164947   -0.131711
C    -0.689159    3.872946    1.833141   -0.110157   -0.094963   -0.066107
H    -1.179596    3.027097    1.333534   -0.204071   -0.055075   -0.048339
C    -3.080662    0.980723    4.027628   -0.011024   -0.076373    0.069249
H    -3.908243    0.598943    3.402219   -0.067999   -0.055303    0.129177
O    -3.525173    1.126087    5.372328    0.090658   -0.094287    0.107719
H    -3.903263    2.002437    5.478947    0.121555   -0.085527    0.157839
69
* Frequency(7)  -21.8709
H     2.640278   -2.478034   -2.644997    0.220532    0.202241    0.313547
O     2.447588   -2.010812   -1.830028    0.151339    0.203793    0.298944
C     1.534423   -2.769396   -1.051798    0.122001    0.181735    0.246086
H     0.925494   -3.421505   -1.702884    0.212951    0.130997    0.211674
H     2.084886   -3.414715   -0.342432    0.098653    0.228687    0.311817
C     0.571037   -1.894947   -0.247799   -0.004753    0.152166    0.138880
H    -0.197932   -2.581681    0.140336    0.001104    0.114715    0.087040
O     1.173655   -1.349605    0.907995   -0.143007    0.229096    0.183637
C     1.990601   -0.218091    0.725093   -0.183137    0.260793    0.219072
H     2.879873   -0.458180    0.111335   -0.110934    0.273575    0.317735
H     2.325261    0.086000    1.727304   -0.289841    0.320176    0.243430
C     1.204308    0.919013    0.067752   -0.155012    0.212486    0.081417
H     0.396918    1.228283    0.746227   -0.215997    0.276940   -0.008119
C     0.596589    0.453940   -1.250572   -0.053083    0.121699    0.059752
H     1.406161    0.249572   -1.968074    0.005716    0.141805    0.119382
H    -0.075624    1.225252   -1.654756   -0.071980    0.070975   -0.016078
N     2.070060    2.084442   -0.118485   -0.117512    0.185093    0.056650
C     2.468213    2.695350   -1.282485   -0.120867    0.157853    0.040993
H     2.186182    2.296428   -2.254570   -0.208578    0.187872    0.052245
N     3.173754    3.782201   -1.104420   -0.020223    0.100390    0.013843
C     3.252510    3.905653    0.265051    0.058565    0.087784    0.011188
C     3.778872    4.904426    1.111947    0.225025    0.026562   -0.006795
N     4.387947    6.018360    0.622043    0.323792   -0.034890   -0.036410
H     4.158862    6.250829   -0.336836    0.266978    0.002883   -0.015460
H     4.418790    6.800430    1.266319    0.473315   -0.043103   -0.022856
N     3.675361    4.743282    2.433414    0.286087    0.029163   -0.001694
C     3.043887    3.658700    2.905853    0.197075    0.087697    0.024084
H     2.987300    3.580813    3.997865    0.244679    0.086985    0.027060
N     2.461136    2.688836    2.216147    0.055161    0.147595    0.047106
C     2.580283    2.859071    0.894758   -0.002400    0.140561    0.038193
C    -0.183611   -0.860975   -1.113545    0.005792    0.081664    0.043418
H    -0.250482   -1.290540   -2.128438    0.111107    0.043812    0.049421
O    -1.526748   -0.761102   -0.692387   -0.040791    0.022147   -0.075191
P    -2.269429    0.368315    0.267082   -0.138881   -0.038032   -0.073625
O    -3.672197   -0.110154    0.462523   -0.118987   -0.124310   -0.123830
O    -1.891148    1.756107   -0.190785   -0.198743   -0.010126   -0.044274
O    -1.424341    0.201786    1.682769   -0.169080   -0.003323   -0.058178
C    -1.744381   -0.742654    2.677092   -0.108881   -0.043485   -0.076780
H    -2.657145   -1.297066    2.395446   -0.130751   -0.028078   -0.044331
H    -0.903387   -1.451503    2.768928   -0.103949   -0.049799   -0.152291
C    -1.966973   -0.078384    4.035677   -0.019366   -0.089357   -0.036389
H    -2.292072   -0.873733    4.726245    0.018559   -0.111449   -0.042258
O    -0.780094    0.429130    4.612340    0.018702   -0.116714   -0.091594
C    -0.235458    1.567436    3.983671   -0.002938   -0.107595   -0.094809
H     0.102209    1.340179    2.962241   -0.049484   -0.093326   -0.115190
H     0.647105    1.855242    4.570882    0.025106   -0.121764   -0.131258
C    -1.238709    2.727360    3.969619    0.005702   -0.096451   -0.033986
H    -1.341734    3.089551    5.000427    0.074964   -0.094880   -0.026624
C    -2.612210    2.307782    3.439766   -0.037714   -0.073491    0.053207
H    -2.602823    2.199658    2.348763   -0.113620   -0.063406    0.050491
H    -3.355409    3.094954    3.663580   -0.013170   -0.066376    0.115403
N    -0.681478    3.860145    3.211455   -0.018134   -0.106782   -0.066169
C    -0.033715    4.853643    3.921804    0.106306   -0.158579   -0.097673
O     0.050194    4.881382    5.137570    0.182698   -0.170826   -0.100232
N     0.522403    5.844435    3.137827    0.135117   -0.195827   -0.124548
H     1.044729    6.550889    3.645160    0.217910   -0.233864   -0.151639
C     0.555544    5.930824    1.747084    0.065020   -0.198567   -0.127781
O     1.138864    6.859389    1.207455    0.118413   -0.245675   -0.154976
C    -0.141861    4.844939    1.071441   -0.072044   -0.137209   -0.094053
C    -0.214268    4.835450   -0.426191   -0.152460   -0.122290   -0.090970
H    -0.708202    3.915038   -0.773060   -0.222048   -0.095704   -0.075269
H    -0.784746    5.703799   -0.792762   -0.122609   -0.085225   -0.053828
H     0.789923    4.908186   -0.868963   -0.167361   -0.164947   -0.131711
C    -0.694257    3.868551    1.830081   -0.110157   -0.094963   -0.066107
H    -1.189041    3.024548    1.331296   -0.204071   -0.055075   -0.048339
C    -3.081172    0.977188    4.030833   -0.011024   -0.076373    0.069249
H    -3.911391    0.596383    3.408197   -0.067999   -0.055303    0.129177
O    -3.520977    1.121723    5.377314    0.090658   -0.094287    0.107719
H    -3.897637    1.998479    5.486252    0.121555   -0.085527    0.157839
69
* Frequency(7)  -21.8709
H     2.642376   -2.476110   -2.642014    0.220532    0.202241    0.313547
O     2.449028   -2.008873   -1.827184    0.151339    0.203793    0.298944
C     1.535584   -2.767667   -1.049457    0.122001    0.181735    0.246086
H     0.927520   -3.420259   -1.700870    0.212951    0.130997    0.211674
H     2.085825   -3.412539   -0.339465    0.098653    0.228687    0.311817
C     0.570992   -1.893499   -0.246478   -0.004753    0.152166    0.138880
H    -0.197922   -2.580590    0.141165    0.001104    0.114715    0.087040
O     1.172295   -1.347426    0.909742   -0.143007    0.229096    0.183637
C     1.988859   -0.215609    0.727177   -0.183137    0.260793    0.219072
H     2.878817   -0.455577    0.114358   -0.110934    0.273575    0.317735
H     2.322503    0.089047    1.729620   -0.289841    0.320176    0.243430
C     1.202834    0.921035    0.068527   -0.155012    0.212486    0.081417
H     0.394863    1.230918    0.746149   -0.215997    0.276940   -0.008119
C     0.596084    0.455098   -1.250004   -0.053083    0.121699    0.059752
H     1.406216    0.250921   -1.966938    0.005716    0.141805    0.119382
H    -0.076309    1.225928   -1.654909   -0.071980    0.070975   -0.016078
N     2.068942    2.086203   -0.117946   -0.117512    0.185093    0.056650
C     2.467063    2.696852   -1.282095   -0.120867    0.157853    0.040993
H     2.184197    2.298215   -2.254073   -0.208578    0.187872    0.052245
N     3.173561    3.783156   -1.104288   -0.020223    0.100390    0.013843
C     3.253067    3.906488    0.265158    0.058565    0.087784    0.011188
C     3.781013    4.904679    1.111882    0.225025    0.026562   -0.006795
N     4.391028    6.018028    0.621696    0.323792   -0.034890   -0.036410
H     4.161402    6.250856   -0.336983    0.266978    0.002883   -0.015460
H     4.423293    6.800020    1.266102    0.473315   -0.043103   -0.022856
N     3.678083    4.743559    2.433398    0.286087    0.029163   -0.001694
C     3.045762    3.659535    2.906082    0.197075    0.087697    0.024084
H     2.989628    3.581641    3.998122    0.244679    0.086985    0.027060
N     2.461661    2.690240    2.216596    0.055161    0.147595    0.047106
C     2.580261    2.860408    0.895121   -0.002400    0.140561    0.038193
C    -0.183556   -0.860198   -1.113132    0.005792    0.081664    0.043418
H    -0.249425   -1.290123   -2.127968    0.111107    0.043812    0.049421
O    -1.527136   -0.760892   -0.693102   -0.040791    0.022147   -0.075191
P    -2.270750    0.367953    0.266381   -0.138881   -0.038032   -0.073625
O    -3.673329   -0.111337    0.461345   -0.118987   -0.124310   -0.123830
O    -1.893039    1.756010   -0.191206   -0.198743   -0.010126   -0.044274
O    -1.425950    0.201754    1.682215   -0.169080   -0.003323   -0.058178
C    -1.745416   -0.743068    2.676361   -0.108881   -0.043485   -0.076780
H    -2.658389   -1.297333    2.395024   -0.130751   -0.028078   -0.044331
H    -0.904376   -1.451976    2.767479   -0.103949   -0.049799   -0.152291
C    -1.967157   -0.079234    4.035331   -0.019366   -0.089357   -0.036389
H    -2.291895   -0.874793    4.725843    0.018559   -0.111449   -0.042258
O    -0.779916    0.428019    4.611468    0.018702   -0.116714   -0.091594
C    -0.235486    1.566412    3.982769   -0.002938   -0.107595   -0.094809
H     0.101738    1.339291    2.961145   -0.049484   -0.093326   -0.115190
H     0.647344    1.854084    4.569633    0.025106   -0.121764   -0.131258
C    -1.238654    2.726442    3.969296    0.005702   -0.096451   -0.033986
H    -1.341021    3.088648    5.000174    0.074964   -0.094880   -0.026624
C    -2.612569    2.307083    3.440272   -0.037714   -0.073491    0.053207
H    -2.603904    2.199055    2.349244   -0.113620   -0.063406    0.050491
H    -3.355534    3.094322    3.664678   -0.013170   -0.066376    0.115403
N    -0.681650    3.859129    3.210826   -0.018134   -0.106782   -0.066169